[Molden Format]
[ATOMS] AU
H        1     1      1.6380335020     1.1365568804     9.4486306228
F        2     9     -1.6380335020     1.1365568804     9.4486306228
O        3     8      0.0000000000    -0.1432223430     9.4486306228
[GTO]
1
s 2
       5.4471780      0.1562850000
       0.8245470      0.9046910000
s 1
       0.1831920      1.0000000000

2
s 3
     413.8010000      0.0585483000
      62.2446000      0.3493080000
      13.4340000      0.7096320000
s 2
       9.7775900     -0.4073270000
       2.0861700      1.2231400000
p 2
       9.7775900      0.2466800000
       2.0861700      0.8523210000
s 1
       0.4823830      1.0000000000
p 1
       0.4823830      1.0000000000

3
s 3
     322.0370000      0.0592394000
      48.4308000      0.3515000000
      10.4206000      0.7076580000
s 2
       7.4029400     -0.4044530000
       1.5762000      1.2215600000
p 2
       7.4029400      0.2445860000
       1.5762000      0.8539550000
s 1
       0.3736840      1.0000000000
p 1
       0.3736840      1.0000000000

[5D7F]
[9G]
[MO]
Sym=X
Ene=   -26.2050990066
Spin=Alpha
Occup=2.0000
     1     -0.001976928839
     2      0.002163055034
     3      0.982054360782
     4      0.097972491653
     5      0.003399207087
     6     -0.002437536282
     7      0.000000000000
     8     -0.040787503618
     9     -0.010698926019
    10      0.007930204960
    11     -0.000000000000
    12     -0.000416475081
    13     -0.002005507356
    14     -0.000627519333
    15      0.000478381119
    16      0.000000000000
    17      0.016155931999
    18     -0.009640040636
    19      0.007698440921
    20      0.000000000000
Sym=X
Ene=   -20.5510700639
Spin=Alpha
Occup=2.0000
     1      0.002648405439
     2      0.006295237931
     3     -0.000110428863
     4     -0.000947419954
     5      0.000186734209
     6     -0.000209121251
     7      0.000000000000
     8      0.010109032888
     9      0.003806742541
    10     -0.002076271406
    11     -0.000000000000
    12      0.983142397302
    13      0.095603109279
    14     -0.000706517060
    15      0.004052797292
    16     -0.000000000000
    17     -0.037491843703
    18      0.002082836542
    19     -0.008356171224
    20      0.000000000000
Sym=X
Ene=    -1.8976978829
Spin=Alpha
Occup=2.0000
     1      0.024011482971
     2     -0.016368703301
     3     -0.199471864179
     4      0.193020749832
     5      0.109776567758
     6     -0.077776996033
     7     -0.000000000000
     8      0.577778207766
     9      0.108716248116
    10     -0.075523795842
    11     -0.000000000000
    12     -0.131946537574
    13      0.140827059687
    14     -0.105904230842
    15      0.099853627199
    16      0.000000000000
    17      0.252305306895
    18     -0.001638165832
    19      0.034988891676
    20      0.000000000000
Sym=X
Ene=    -1.1889825687
Spin=Alpha
Occup=2.0000
     1      0.094624452993
     2      0.029260808949
     3      0.154378862393
     4     -0.143480660436
     5      0.132249229093
     6     -0.077868068632
     7      0.000000000000
     8     -0.628721610866
     9      0.066848467042
    10     -0.040857818972
    11      0.000000000000
    12     -0.188867907232
    13      0.182959665831
    14      0.071695941596
    15      0.018486345690
    16      0.000000000000
    17      0.670976464226
    18      0.045498843217
    19      0.063558088433
    20      0.000000000000
Sym=X
Ene=    -0.8564173376
Spin=Alpha
Occup=2.0000
     1      0.124054142967
     2      0.110120151051
     3     -0.029612133781
     4      0.030108455201
     5      0.098199748860
     6      0.387542871058
     7     -0.000000000000
     8      0.112014422859
     9      0.093458063804
    10      0.394051751933
    11     -0.000000000000
    12      0.018859984854
    13     -0.032681882519
    14      0.249044642554
    15      0.145585683970
    16     -0.000000000000
    17     -0.023146850528
    18      0.196411906483
    19      0.183256259746
    20     -0.000000000000
Sym=X
Ene=    -0.8299642976
Spin=Alpha
Occup=2.0000
     1     -0.000000000000
     2      0.000000000000
     3     -0.000000000000
     4      0.000000000000
     5     -0.000000000000
     6      0.000000000000
     7      0.434828325849
     8     -0.000000000000
     9     -0.000000000000
    10      0.000000000000
    11      0.441218477254
    12      0.000000000000
    13     -0.000000000000
    14      0.000000000000
    15     -0.000000000000
    16      0.300427688565
    17      0.000000000000
    18     -0.000000000000
    19      0.000000000000
    20      0.294501842049
Sym=X
Ene=    -0.7605116212
Spin=Alpha
Occup=2.0000
     1      0.064791799741
     2      0.085635122442
     3     -0.043622264612
     4      0.041337069846
     5     -0.394532186197
     6      0.056022530378
     7     -0.000000000000
     8      0.183086255593
     9     -0.421451085733
    10      0.053562423535
    11     -0.000000000000
    12     -0.067481053069
    13      0.052113893786
    14      0.221496172118
    15     -0.260567195420
    16     -0.000000000000
    17      0.352797710596
    18      0.133285038133
    19     -0.200544722335
    20     -0.000000000000
Sym=X
Ene=    -0.4896240440
Spin=Alpha
Occup=2.0000
     1      0.206869191799
     2      0.213416194156
     3     -0.000922865161
     4      0.007668821763
     5     -0.192749541945
     6     -0.323548948172
     7      0.000000000000
     8     -0.025188450827
     9     -0.244207928971
    10     -0.375588705881
    11      0.000000000000
    12      0.059134451153
    13     -0.060012336673
    14      0.130267842264
    15      0.329690286037
    16     -0.000000000000
    17     -0.280920298328
    18      0.145359919112
    19      0.377902458352
    20     -0.000000000000
Sym=X
Ene=    -0.4400153496
Spin=Alpha
Occup=2.0000
     1     -0.000000000000
     2      0.000000000000
     3      0.000000000000
     4      0.000000000000
     5     -0.000000000000
     6      0.000000000000
     7      0.367233510818
     8     -0.000000000000
     9     -0.000000000000
    10      0.000000000000
    11      0.443991249409
    12     -0.000000000000
    13     -0.000000000000
    14     -0.000000000000
    15     -0.000000000000
    16     -0.476627556531
    17      0.000000000000
    18     -0.000000000000
    19      0.000000000000
    20     -0.555428516450
Sym=X
Ene=     0.2100950921
Spin=Alpha
Occup=0.0000
     1      0.121732437417
     2      1.187300642274
     3      0.003565151871
     4     -0.003180447347
     5      0.082908147648
     6      0.013285890636
     7     -0.000000000000
     8     -0.024694150606
     9      0.128453907148
    10      0.020791426244
    11     -0.000000000000
    12      0.079985483043
    13     -0.038852886406
    14     -0.217022046242
    15     -0.198922535053
    16      0.000000000000
    17     -0.689050699339
    18     -0.439921110466
    19     -0.389649609164
    20      0.000000000000
Sym=X
Ene=     0.6138077520
Spin=Alpha
Occup=0.0000
     1      0.070719408372
     2     -0.002502235657
     3      0.110398204114
     4     -0.075847306604
     5     -0.285197530720
     6      0.231456589483
     7     -0.000000000000
     8     -1.094674806708
     9     -0.748954547912
    10      0.611207890551
    11     -0.000000000000
    12     -0.098043659595
    13      0.061704011422
    14     -0.330116233339
    15      0.206700611514
    16      0.000000000000
    17      0.985207069102
    18     -0.971711593348
    19      0.682629525847
    20      0.000000000000
Sym=X
Ene=     1.1241194554
Spin=Alpha
Occup=0.0000
     1      1.260199836336
     2     -1.027342143040
     3     -0.025973696992
     4      0.051627956678
     5      0.103257637437
     6      0.044850692218
     7      0.000000000000
     8      0.129638935939
     9      0.100766665373
    10     -0.016208216548
    11     -0.000000000000
    12      0.033985372824
    13     -0.088271693537
    14     -0.151465068542
    15     -0.271115119225
    16     -0.000000000000
    17      0.107365760558
    18      0.020405761770
    19     -0.055062688544
    20      0.000000000000
Sym=X
Ene=     1.6987426684
Spin=Alpha
Occup=0.0000
     1      0.105932945597
     2     -0.133816804811
     3     -0.022562139023
     4     -0.005899490875
     5     -0.156796064448
     6      0.197219541918
     7     -0.000000000000
     8      0.831536105660
     9      0.422010965213
    10     -0.352949744748
    11      0.000000000000
    12      0.023111772645
    13      0.078801516707
    14     -0.707282849834
    15      0.688458879875
    16     -0.000000000000
    17     -0.566789181991
    18      1.085563068103
    19     -0.983490729556
    20      0.000000000000
Sym=X
Ene=     1.7201729935
Spin=Alpha
Occup=0.0000
     1      0.000000000000
     2     -0.000000000000
     3     -0.000000000000
     4      0.000000000000
     5     -0.000000000000
     6      0.000000000000
     7      0.148991196768
     8      0.000000000000
     9      0.000000000000
    10     -0.000000000000
    11      0.079221916758
    12      0.000000000000
    13      0.000000000000
    14     -0.000000000000
    15      0.000000000000
    16      1.006193000462
    17     -0.000000000000
    18      0.000000000000
    19     -0.000000000000
    20     -1.021309282311
Sym=X
Ene=     1.9010681913
Spin=Alpha
Occup=0.0000
     1      0.386903493175
     2      0.129057734709
     3      0.008224989806
     4     -0.012033781268
     5      0.236390718528
     6      0.164096183624
     7      0.000000000000
     8     -0.182206458062
     9     -0.137406300832
    10      0.078032121499
    11     -0.000000000000
    12      0.034848596078
    13     -0.229705242917
    14      0.680269933493
    15      0.685415472121
    16      0.000000000000
    17      0.167856052667
    18     -0.933106951357
    19     -0.726497774465
    20     -0.000000000000
Sym=X
Ene=     2.2391366290
Spin=Alpha
Occup=0.0000
     1     -0.000000000000
     2      0.000000000000
     3     -0.000000000000
     4      0.000000000000
     5     -0.000000000000
     6      0.000000000000
     7      0.992608625590
     8     -0.000000000000
     9      0.000000000000
    10      0.000000000000
    11     -1.084152956177
    12     -0.000000000000
    13     -0.000000000000
    14     -0.000000000000
    15      0.000000000000
    16     -0.117997622398
    17      0.000000000000
    18     -0.000000000000
    19     -0.000000000000
    20      0.384556407499
Sym=X
Ene=     2.2681643041
Spin=Alpha
Occup=0.0000
     1      0.267196276846
     2     -0.136574622415
     3      0.003546509563
     4     -0.014913120035
     5     -0.536486295084
     6     -0.799494519559
     7     -0.000000000000
     8     -0.019382338123
     9      0.602321030847
    10      0.927299333283
    11      0.000000000000
    12      0.017227569366
    13     -0.144005342089
    14      0.102061607621
    15      0.194843185808
    16      0.000000000000
    17      0.169662656786
    18     -0.344016081591
    19     -0.431497691343
    20     -0.000000000000
Sym=X
Ene=     2.3739706193
Spin=Alpha
Occup=0.0000
     1      0.106353471486
     2      0.064236534112
     3     -0.061729860291
     4      0.241793126195
     5     -0.790030004632
     6      0.534259868600
     7     -0.000000000000
     8      0.167118784472
     9      1.095969583768
    10     -0.727300116800
    11      0.000000000000
    12     -0.004651194656
    13      0.141111654205
    14      0.293228445971
    15     -0.104703826393
    16     -0.000000000000
    17     -0.792838584247
    18     -0.022235621738
    19     -0.219806281208
    20     -0.000000000000
Sym=X
Ene=     2.9248061281
Spin=Alpha
Occup=0.0000
     1      0.279696486868
     2      0.346060921857
     3     -0.040300580636
     4      0.231108720224
     5      0.127857122528
     6     -0.152742838314
     7     -0.000000000000
     8      0.256498192618
     9      0.120920506248
    10      0.064653632475
    11      0.000000000000
    12     -0.084719876922
    13      1.557246612106
    14      0.127704283648
    15      0.167061935345
    16     -0.000000000000
    17     -1.754699398092
    18     -0.114685318614
    19     -0.515160747070
    20      0.000000000000
Sym=X
Ene=     4.0298570277
Spin=Alpha
Occup=0.0000
     1      0.220568368805
     2     -0.085714236810
     3      0.077432592482
     4     -1.600991237259
     5     -0.187501417373
     6      0.130141257794
     7      0.000000000000
     8      2.366506725241
     9      0.862808355861
    10     -0.616988334052
    11     -0.000000000000
    12      0.024356763958
    13      0.420591075064
    14      0.117199746943
    15     -0.046447151257
    16     -0.000000000000
    17     -1.495527026501
    18      0.650816395940
    19     -0.642108919685
    20      0.000000000000
