[Molden Format]
[ATOMS] AU
H        1     1      1.6380335020     1.1365568804     9.4486306228
F        2     9     -1.6380335020     1.1365568804     9.4486306228
O        3     8      0.0000000000    -0.1432223430     9.4486306228
[GTO]
1
s 2
       5.4471780      0.1562850000
       0.8245470      0.9046910000
s 1
       0.1831920      1.0000000000

2
s 3
     413.8010000      0.0585483000
      62.2446000      0.3493080000
      13.4340000      0.7096320000
s 2
       9.7775900     -0.4073270000
       2.0861700      1.2231400000
p 2
       9.7775900      0.2466800000
       2.0861700      0.8523210000
s 1
       0.4823830      1.0000000000
p 1
       0.4823830      1.0000000000

3
s 3
     322.0370000      0.0592394000
      48.4308000      0.3515000000
      10.4206000      0.7076580000
s 2
       7.4029400     -0.4044530000
       1.5762000      1.2215600000
p 2
       7.4029400      0.2445860000
       1.5762000      0.8539550000
s 1
       0.3736840      1.0000000000
p 1
       0.3736840      1.0000000000

[5D7F]
[9G]
[MO]
Sym=X
Ene=   -26.2050990069
Spin=Alpha
Occup=2.0000
     1     -0.001976928839
     2      0.002163055034
     3      0.982054360783
     4      0.097972491652
     5      0.003399207087
     6     -0.002437536281
     7      0.000000000000
     8     -0.040787503618
     9     -0.010698926019
    10      0.007930204960
    11     -0.000000000000
    12     -0.000416475081
    13     -0.002005507356
    14     -0.000627519333
    15      0.000478381119
    16      0.000000000000
    17      0.016155931999
    18     -0.009640040636
    19      0.007698440921
    20      0.000000000000
Sym=X
Ene=   -20.5510700646
Spin=Alpha
Occup=2.0000
     1      0.002648405439
     2      0.006295237930
     3     -0.000110428863
     4     -0.000947419954
     5      0.000186734209
     6     -0.000209121251
     7      0.000000000000
     8      0.010109032888
     9      0.003806742541
    10     -0.002076271406
    11     -0.000000000000
    12      0.983142397303
    13      0.095603109276
    14     -0.000706517060
    15      0.004052797292
    16     -0.000000000000
    17     -0.037491843703
    18      0.002082836542
    19     -0.008356171224
    20      0.000000000000
Sym=X
Ene=    -1.8976978831
Spin=Alpha
Occup=2.0000
     1      0.024011482965
     2     -0.016368703308
     3     -0.199471864166
     4      0.193020749826
     5      0.109776567770
     6     -0.077776996053
     7     -0.000000000000
     8      0.577778207711
     9      0.108716248125
    10     -0.075523795853
    11     -0.000000000000
    12     -0.131946537588
    13      0.140827059721
    14     -0.105904230858
    15      0.099853627203
    16      0.000000000000
    17      0.252305306926
    18     -0.001638165835
    19      0.034988891677
    20      0.000000000000
Sym=X
Ene=    -1.1889825689
Spin=Alpha
Occup=2.0000
     1      0.094624452957
     2      0.029260808931
     3      0.154378862406
     4     -0.143480660456
     5      0.132249229035
     6     -0.077868068615
     7      0.000000000000
     8     -0.628721610907
     9      0.066848466981
    10     -0.040857818940
    11      0.000000000000
    12     -0.188867907242
    13      0.182959665871
    14      0.071695941611
    15      0.018486345638
    16      0.000000000000
    17      0.670976464273
    18      0.045498843196
    19      0.063558088401
    20      0.000000000000
Sym=X
Ene=    -0.8564173378
Spin=Alpha
Occup=2.0000
     1      0.124054142964
     2      0.110120151045
     3     -0.029612133790
     4      0.030108455206
     5      0.098199748754
     6      0.387542871091
     7     -0.000000000000
     8      0.112014422875
     9      0.093458063697
    10      0.394051751939
    11     -0.000000000000
    12      0.018859984816
    13     -0.032681882491
    14      0.249044642622
    15      0.145585683930
    16     -0.000000000000
    17     -0.023146850353
    18      0.196411906506
    19      0.183256259717
    20     -0.000000000000
Sym=X
Ene=    -0.8299642977
Spin=Alpha
Occup=2.0000
     1     -0.000000000000
     2      0.000000000000
     3     -0.000000000000
     4      0.000000000000
     5     -0.000000000000
     6      0.000000000000
     7      0.434828325795
     8     -0.000000000000
     9     -0.000000000000
    10      0.000000000000
    11      0.441218477169
    12      0.000000000000
    13     -0.000000000000
    14      0.000000000000
    15     -0.000000000000
    16      0.300427688681
    17      0.000000000000
    18     -0.000000000000
    19      0.000000000000
    20      0.294501842120
Sym=X
Ene=    -0.7605116214
Spin=Alpha
Occup=2.0000
     1      0.064791799639
     2      0.085635122333
     3     -0.043622264630
     4      0.041337069866
     5     -0.394532186166
     6      0.056022530358
     7     -0.000000000000
     8      0.183086255677
     9     -0.421451085687
    10      0.053562423509
    11     -0.000000000000
    12     -0.067481053070
    13      0.052113893804
    14      0.221496172062
    15     -0.260567195557
    16     -0.000000000000
    17      0.352797710578
    18      0.133285038061
    19     -0.200544722478
    20     -0.000000000000
Sym=X
Ene=    -0.4896240442
Spin=Alpha
Occup=2.0000
     1      0.206869191823
     2      0.213416194280
     3     -0.000922865174
     4      0.007668821773
     5     -0.192749541981
     6     -0.323548948200
     7      0.000000000000
     8     -0.025188450718
     9     -0.244207928994
    10     -0.375588705910
    11      0.000000000000
    12      0.059134451142
    13     -0.060012336682
    14      0.130267842354
    15      0.329690285937
    16     -0.000000000000
    17     -0.280920298320
    18      0.145359919202
    19      0.377902458207
    20     -0.000000000000
Sym=X
Ene=    -0.4400153498
Spin=Alpha
Occup=2.0000
     1     -0.000000000000
     2      0.000000000000
     3      0.000000000000
     4      0.000000000000
     5     -0.000000000000
     6      0.000000000000
     7      0.367233510901
     8     -0.000000000000
     9     -0.000000000000
    10      0.000000000000
    11      0.443991249471
    12     -0.000000000000
    13     -0.000000000000
    14     -0.000000000000
    15     -0.000000000000
    16     -0.476627556527
    17      0.000000000000
    18     -0.000000000000
    19      0.000000000000
    20     -0.555428516343
Sym=X
Ene=     0.2100950921
Spin=Alpha
Occup=0.0000
     1      0.121732437473
     2      1.187300642186
     3      0.003565151876
     4     -0.003180447351
     5      0.082908147646
     6      0.013285890687
     7     -0.000000000000
     8     -0.024694150651
     9      0.128453907130
    10      0.020791426320
    11     -0.000000000000
    12      0.079985483029
    13     -0.038852886434
    14     -0.217022046294
    15     -0.198922535100
    16      0.000000000000
    17     -0.689050699184
    18     -0.439921110469
    19     -0.389649609142
    20      0.000000000000
Sym=X
Ene=     0.6138077517
Spin=Alpha
Occup=0.0000
     1      0.070719408356
     2     -0.002502235673
     3      0.110398204106
     4     -0.075847306605
     5     -0.285197530789
     6      0.231456589477
     7     -0.000000000000
     8     -1.094674806584
     9     -0.748954547925
    10      0.611207890434
    11     -0.000000000000
    12     -0.098043659589
    13      0.061704011455
    14     -0.330116233394
    15      0.206700611597
    16      0.000000000000
    17      0.985207068994
    18     -0.971711593167
    19      0.682629525816
    20      0.000000000000
Sym=X
Ene=     1.1241194554
Spin=Alpha
Occup=0.0000
     1      1.260199836291
     2     -1.027342143119
     3     -0.025973696988
     4      0.051627956684
     5      0.103257637431
     6      0.044850692223
     7      0.000000000000
     8      0.129638935871
     9      0.100766665318
    10     -0.016208216532
    11      0.000000000000
    12      0.033985372810
    13     -0.088271693545
    14     -0.151465068567
    15     -0.271115119281
    16     -0.000000000000
    17      0.107365760690
    18      0.020405761819
    19     -0.055062688391
    20      0.000000000000
Sym=X
Ene=     1.6987426682
Spin=Alpha
Occup=0.0000
     1      0.105932945606
     2     -0.133816804862
     3     -0.022562139032
     4     -0.005899490870
     5     -0.156796064404
     6      0.197219541877
     7     -0.000000000000
     8      0.831536105759
     9      0.422010965225
    10     -0.352949744795
    11      0.000000000000
    12      0.023111772652
    13      0.078801516691
    14     -0.707282849832
    15      0.688458879820
    16     -0.000000000000
    17     -0.566789182023
    18      1.085563068248
    19     -0.983490729576
    20      0.000000000000
Sym=X
Ene=     1.7201729932
Spin=Alpha
Occup=0.0000
     1      0.000000000000
     2     -0.000000000000
     3     -0.000000000000
     4      0.000000000000
     5     -0.000000000000
     6      0.000000000000
     7      0.148991196755
     8      0.000000000000
     9      0.000000000000
    10     -0.000000000000
    11      0.079221916784
    12      0.000000000000
    13      0.000000000000
    14     -0.000000000000
    15      0.000000000000
    16      1.006193000432
    17     -0.000000000000
    18      0.000000000000
    19     -0.000000000000
    20     -1.021309282353
Sym=X
Ene=     1.9010681910
Spin=Alpha
Occup=0.0000
     1      0.386903493287
     2      0.129057734639
     3      0.008224989805
     4     -0.012033781258
     5      0.236390718464
     6      0.164096183603
     7      0.000000000000
     8     -0.182206458071
     9     -0.137406300753
    10      0.078032121544
    11     -0.000000000000
    12      0.034848596082
    13     -0.229705242968
    14      0.680269933447
    15      0.685415472130
    16      0.000000000000
    17      0.167856052711
    18     -0.933106951385
    19     -0.726497774519
    20     -0.000000000000
Sym=X
Ene=     2.2391366289
Spin=Alpha
Occup=0.0000
     1     -0.000000000000
     2      0.000000000000
     3     -0.000000000000
     4      0.000000000000
     5     -0.000000000000
     6      0.000000000000
     7      0.992608625585
     8     -0.000000000000
     9      0.000000000000
    10     -0.000000000000
    11     -1.084152956184
    12     -0.000000000000
    13     -0.000000000000
    14     -0.000000000000
    15      0.000000000000
    16     -0.117997622377
    17      0.000000000000
    18     -0.000000000000
    19      0.000000000000
    20      0.384556407486
Sym=X
Ene=     2.2681643040
Spin=Alpha
Occup=0.0000
     1      0.267196276812
     2     -0.136574622474
     3      0.003546509580
     4     -0.014913120093
     5     -0.536486294931
     6     -0.799494519673
     7     -0.000000000000
     8     -0.019382338176
     9      0.602321030588
    10      0.927299333461
    11      0.000000000000
    12      0.017227569365
    13     -0.144005342154
    14      0.102061607487
    15      0.194843185782
    16      0.000000000000
    17      0.169662657040
    18     -0.344016081527
    19     -0.431497691223
    20     -0.000000000000
Sym=X
Ene=     2.3739706191
Spin=Alpha
Occup=0.0000
     1      0.106353471556
     2      0.064236534079
     3     -0.061729860293
     4      0.241793126181
     5     -0.790030004768
     6      0.534259868406
     7     -0.000000000000
     8      0.167118784540
     9      1.095969583939
    10     -0.727300116626
    11      0.000000000000
    12     -0.004651194650
    13      0.141111654210
    14      0.293228445947
    15     -0.104703826343
    16     -0.000000000000
    17     -0.792838584298
    18     -0.022235621739
    19     -0.219806281341
    20     -0.000000000000
Sym=X
Ene=     2.9248061278
Spin=Alpha
Occup=0.0000
     1      0.279696486914
     2      0.346060921867
     3     -0.040300580635
     4      0.231108720201
     5      0.127857122534
     6     -0.152742838342
     7     -0.000000000000
     8      0.256498192662
     9      0.120920506273
    10      0.064653632501
    11      0.000000000000
    12     -0.084719876908
    13      1.557246612089
    14      0.127704283656
    15      0.167061935368
    16     -0.000000000000
    17     -1.754699398142
    18     -0.114685318634
    19     -0.515160747128
    20      0.000000000000
Sym=X
Ene=     4.0298570276
Spin=Alpha
Occup=0.0000
     1      0.220568368814
     2     -0.085714236819
     3      0.077432592481
     4     -1.600991237262
     5     -0.187501417367
     6      0.130141257787
     7      0.000000000000
     8      2.366506725253
     9      0.862808355856
    10     -0.616988334050
    11     -0.000000000000
    12      0.024356763962
    13      0.420591075040
    14      0.117199746938
    15     -0.046447151254
    16     -0.000000000000
    17     -1.495527026485
    18      0.650816395945
    19     -0.642108919692
    20      0.000000000000
