[Molden Format]
[ATOMS] AU
H        1     1      1.6380335020     1.1365568804     9.4486306228
H        2     1     -1.6380335020     1.1365568804     9.4486306228
O        3     8      0.0000000000    -0.1432223430     9.4486306228
He       4     2      0.0000000000     0.0000000000    14.1729459342
[GTO]
1
s 3
      18.7311370      0.0334946000
       2.8253937      0.2347269500
       0.6401217      0.8137573300
s 1
       0.1612778      1.0000000000
p 1
       1.5000000      1.0000000000
p 1
       0.3750000      1.0000000000

2
s 3
      18.7311370      0.0334946000
       2.8253937      0.2347269500
       0.6401217      0.8137573300
s 1
       0.1612778      1.0000000000
p 1
       1.5000000      1.0000000000
p 1
       0.3750000      1.0000000000

3
s 6
    5484.6717000      0.0018311000
     825.2349500      0.0139501000
     188.0469600      0.0684451000
      52.9645000      0.2327143000
      16.8975700      0.4701930000
       5.7996353      0.3585209000
s 3
      15.5396160     -0.1107775000
       3.5999336     -0.1480263000
       1.0137618      1.1307670000
p 3
      15.5396160      0.0708743000
       3.5999336      0.3397528000
       1.0137618      0.7271586000
s 1
       0.2700058      1.0000000000
p 1
       0.2700058      1.0000000000
d 1
       2.5840000      1.0000000000
d 1
       0.6460000      1.0000000000
f 1
       1.4000000      1.0000000000

4
s 3
      38.4216340      0.0237660000
       5.7780300      0.1546790000
       1.2417740      0.4696300000
s 1
       0.2979640      1.0000000000
p 1
       1.5000000      1.0000000000
p 1
       0.3750000      1.0000000000

[MO]
Sym=X
Ene=   -20.5856678775
Spin=Alpha
Occup=2.0000
     1      0.000279772637
     2     -0.000350466250
     3     -0.000130042586
     4     -0.000099122167
     5      0.000000061531
     6      0.000035425912
     7      0.000002236306
     8     -0.000008826551
     9      0.000279772637
    10     -0.000350466250
    11      0.000130042586
    12     -0.000099122167
    13      0.000000061531
    14     -0.000035425912
    15      0.000002236306
    16     -0.000008826551
    17      0.995793682121
    18      0.001617623732
    19     -0.000000000000
    20      0.002210099248
    21     -0.000008488135
    22      0.003847513262
    23      0.000000000000
    24      0.000328544069
    25      0.000036265497
    26      0.006684693853
    27      0.006722757751
    28      0.006817801607
    29     -0.000000000000
    30     -0.000000000000
    31     -0.000000212244
    32     -0.001571711328
    33     -0.001429912042
    34     -0.001244106061
    35      0.000000000000
    36     -0.000000000000
    37      0.000006103495
    38     -0.000000000000
    39     -0.001130423592
    40     -0.000006862445
    41     -0.000000000000
    42     -0.000517446199
    43     -0.000002714017
    44      0.000000000000
    45     -0.000499032520
    46     -0.000003184672
    47     -0.000000000000
    48      0.000021605817
    49     -0.000050760158
    50     -0.000000000000
    51     -0.000004108241
    52     -0.000028353726
    53      0.000000000000
    54      0.000010592004
    55      0.000073874530
Sym=X
Ene=    -1.2819428613
Spin=Alpha
Occup=2.0000
     1      0.106294212492
     2      0.027754978856
     3     -0.010375525522
     4     -0.007485709807
     5      0.000004729534
     6     -0.007717959723
     7     -0.004635591256
     8      0.000004505701
     9      0.106294212492
    10      0.027754978856
    11      0.010375525522
    12     -0.007485709807
    13      0.000004729534
    14      0.007717959723
    15     -0.004635591256
    16      0.000004505701
    17     -0.211001892864
    18      0.493842669561
    19     -0.000000000000
    20      0.051858334603
    21      0.000283296097
    22      0.412462268771
    23      0.000000000000
    24      0.025030115089
    25      0.000130524008
    26      0.005834244210
    27      0.004493257251
    28      0.001665701200
    29     -0.000000000000
    30     -0.000000000000
    31      0.000004420114
    32      0.025117077005
    33      0.023244811712
    34      0.014945244195
    35      0.000000000000
    36     -0.000000000000
    37      0.000010259277
    38     -0.000000000000
    39      0.004070330941
    40      0.000014879121
    41     -0.000000000000
    42      0.004833148593
    43      0.000005220725
    44     -0.000000000000
    45      0.000632651740
    46      0.000002470955
    47     -0.000000000000
    48      0.007890692825
    49      0.006602433713
    50     -0.000000000000
    51      0.000067509776
    52     -0.000434194383
    53      0.000000000000
    54     -0.000225597643
    55     -0.000378763745
Sym=X
Ene=    -0.8975109625
Spin=Alpha
Occup=2.0000
     1      0.002956150501
     2     -0.008275702868
     3     -0.000480977831
     4     -0.000391210135
     5      0.000237504032
     6      0.002971782830
     7      0.002193010764
     8     -0.003634687079
     9      0.002956150501
    10     -0.008275702868
    11      0.000480977831
    12     -0.000391210135
    13      0.000237504032
    14     -0.002971782830
    15      0.002193010764
    16     -0.003634687079
    17     -0.006304237887
    18      0.011407172220
    19      0.000000000000
    20      0.002604132113
    21     -0.018641065064
    22      0.029731504552
    23      0.000000000000
    24      0.007587231842
    25     -0.012418252489
    26      0.000407953599
    27      0.000412144383
    28      0.000200229995
    29      0.000000000000
    30     -0.000000000000
    31     -0.000208609083
    32      0.000553453296
    33      0.000049411464
    34     -0.003113487547
    35     -0.000000000000
    36      0.000000000000
    37      0.000057617810
    38     -0.000000000000
    39      0.000052550045
    40     -0.000260042306
    41     -0.000000000000
    42      0.000122496150
    43     -0.000086462062
    44      0.000000000000
    45     -0.000093498529
    46     -0.000062072456
    47      0.000000000000
    48     -0.590886055629
    49     -0.512783926347
    50     -0.000000000000
    51     -0.000090347668
    52     -0.000088705512
    53      0.000000000000
    54     -0.002625351730
    55     -0.004195858670
Sym=X
Ene=    -0.6352664230
Spin=Alpha
Occup=2.0000
     1      0.216749276477
     2      0.179468081034
     3     -0.007054931954
     4     -0.010550627740
     5     -0.000005551702
     6     -0.011453893459
     7     -0.013608445202
     8      0.000020997921
     9     -0.216749276477
    10     -0.179468081034
    11     -0.007054931954
    12      0.010550627740
    13      0.000005551702
    14     -0.011453893459
    15      0.013608445202
    16     -0.000020997921
    17      0.000000000000
    18      0.000000000000
    19      0.484362417763
    20     -0.000000000000
    21     -0.000000000000
    22     -0.000000000000
    23      0.286551174627
    24     -0.000000000000
    25     -0.000000000000
    26      0.000000000000
    27      0.000000000000
    28      0.000000000000
    29      0.010191373681
    30     -0.000013888283
    31     -0.000000000000
    32      0.000000000000
    33      0.000000000000
    34      0.000000000000
    35      0.031739585956
    36     -0.000006240258
    37      0.000000000000
    38      0.008376113991
    39      0.000000000000
    40      0.000000000000
    41      0.003268337031
    42      0.000000000000
    43      0.000000000000
    44     -0.002774247552
    45      0.000000000000
    46     -0.000000000000
    47     -0.000015184954
    48      0.000000000000
    49      0.000000000000
    50      0.000113821775
    51     -0.000000000000
    52      0.000000000000
    53      0.001419389579
    54     -0.000000000000
    55     -0.000000000000
Sym=X
Ene=    -0.5481229314
Spin=Alpha
Occup=2.0000
     1      0.149221605731
     2      0.130939694081
     3     -0.007518616281
     4     -0.000611101251
     5      0.000076883283
     6     -0.014811158846
     7      0.012987933505
     8     -0.000305430434
     9      0.149221605731
    10      0.130939694081
    11      0.007518616281
    12     -0.000611101251
    13      0.000076883283
    14      0.014811158846
    15      0.012987933505
    16     -0.000305430434
    17      0.066377654209
    18     -0.130569026607
    19      0.000000000000
    20      0.540952698936
    21      0.003401181428
    22     -0.326915759931
    23     -0.000000000000
    24      0.380065013872
    25      0.003415443995
    26     -0.002114103805
    27      0.001084567229
    28     -0.007041953659
    29     -0.000000000000
    30     -0.000000000000
    31     -0.000014949463
    32      0.013118588194
    33      0.037079090377
    34     -0.003357212386
    35      0.000000000000
    36      0.000000000000
    37      0.000231012461
    38      0.000000000000
    39     -0.000642862322
    40     -0.000294719551
    41      0.000000000000
    42      0.002590153754
    43     -0.000059467226
    44      0.000000000000
    45     -0.004921579548
    46     -0.000105977088
    47     -0.000000000000
    48      0.001614095938
    49     -0.004427394450
    50      0.000000000000
    51     -0.000331523094
    52     -0.000948988314
    53     -0.000000000000
    54      0.003745248728
    55      0.005447643280
Sym=X
Ene=    -0.4929393991
Spin=Alpha
Occup=2.0000
     1     -0.000670794031
     2     -0.005535100680
     3     -0.000031048258
     4     -0.000062899630
     5      0.006335099014
     6      0.001529540636
     7      0.001048939866
     8      0.029740631228
     9     -0.000670794031
    10     -0.005535100680
    11      0.000031048258
    12     -0.000062899630
    13      0.006335099014
    14     -0.001529540636
    15      0.001048939866
    16      0.029740631228
    17     -0.000511841176
    18      0.001007578413
    19      0.000000000000
    20     -0.001546790280
    21      0.648097950456
    22      0.007234454595
    23     -0.000000000000
    24      0.001455677483
    25      0.480114247495
    26      0.000127449968
    27      0.000138343126
    28      0.000191216655
    29      0.000000000000
    30     -0.000000000000
    31      0.003774093094
    32      0.000890276048
    33      0.000599400368
    34      0.000306542468
    35     -0.000000000000
    36     -0.000000000000
    37      0.019897806183
    38     -0.000000000000
    39      0.000016143778
    40     -0.010939150840
    41     -0.000000000000
    42      0.000007841776
    43      0.002450109465
    44      0.000000000000
    45     -0.000010068781
    46     -0.000112160027
    47      0.000000000000
    48     -0.042055778872
    49     -0.028858214259
    50      0.000000000000
    51     -0.000291272079
    52     -0.000543361286
    53     -0.000000000000
    54      0.000782250794
    55     -0.012481191947
Sym=X
Ene=     0.1736649311
Spin=Alpha
Occup=0.0000
     1      0.101353064327
     2      1.058705685756
     3      0.011751793847
     4      0.007873136709
     5     -0.000102456974
     6     -0.099919990016
     7     -0.071339059630
     8      0.001474152506
     9      0.101353064327
    10      1.058705685756
    11     -0.011751793847
    12      0.007873136709
    13     -0.000102456974
    14      0.099919990016
    15     -0.071339059630
    16      0.001474152506
    17      0.103299748314
    18      0.076533925299
    19     -0.000000000000
    20     -0.270874686712
    21      0.002241190622
    22     -1.591602458256
    23     -0.000000000000
    24     -0.665680328052
    25     -0.002145100050
    26     -0.018038473288
    27     -0.023326848612
    28     -0.027911622191
    29      0.000000000000
    30     -0.000000000000
    31      0.000063264684
    32      0.064795222414
    33      0.062954125083
    34      0.116080882278
    35     -0.000000000000
    36     -0.000000000000
    37     -0.000213450173
    38      0.000000000000
    39      0.015515753347
    40      0.000652681087
    41      0.000000000000
    42      0.004228024912
    43      0.000239719803
    44      0.000000000000
    45      0.009443178050
    46      0.000268390311
    47      0.000000000000
    48     -0.030751116835
    49     -0.021681953642
    50      0.000000000000
    51     -0.000088422713
    52      0.000012410394
    53      0.000000000000
    54      0.007060881974
    55     -0.014131900407
Sym=X
Ene=     0.2556586030
Spin=Alpha
Occup=0.0000
     1      0.096362226914
     2      1.313302299163
     3      0.007345158550
     4      0.006855816908
     5     -0.000134096527
     6     -0.101910876911
     7     -0.074120367758
     8      0.000988902117
     9     -0.096362226914
    10     -1.313302299163
    11      0.007345158550
    12     -0.006855816908
    13      0.000134096527
    14     -0.101910876911
    15      0.074120367758
    16     -0.000988902117
    17     -0.000000000000
    18      0.000000000000
    19     -0.373505038546
    20      0.000000000000
    21     -0.000000000000
    22     -0.000000000000
    23     -0.969839851202
    24      0.000000000000
    25      0.000000000000
    26      0.000000000000
    27      0.000000000000
    28      0.000000000000
    29      0.009586584512
    30      0.000022049201
    31     -0.000000000000
    32      0.000000000000
    33      0.000000000000
    34      0.000000000000
    35     -0.061125900303
    36      0.000024881017
    37      0.000000000000
    38      0.019572823934
    39     -0.000000000000
    40     -0.000000000000
    41      0.011109357255
    42      0.000000000000
    43      0.000000000000
    44      0.014796383984
    45     -0.000000000000
    46     -0.000000000000
    47     -0.000015865629
    48      0.000000000000
    49      0.000000000000
    50     -0.001187220799
    51      0.000000000000
    52      0.000000000000
    53      0.022152293840
    54     -0.000000000000
    55      0.000000000000
Sym=X
Ene=     0.6446833434
Spin=Alpha
Occup=0.0000
     1      0.240844429500
     2     -0.796233576689
     3     -0.024219931389
     4      0.014837132036
     5      0.007559948208
     6      0.766591446718
     7     -0.044420197678
     8     -0.063049193771
     9      0.240844429500
    10     -0.796233576689
    11      0.024219931389
    12      0.014837132036
    13      0.007559948208
    14     -0.766591446718
    15     -0.044420197678
    16     -0.063049193771
    17     -0.005453450517
    18     -0.235925397936
    19     -0.000000000000
    20     -0.083713454906
    21      0.071780635242
    22      1.570614409075
    23      0.000000000000
    24      0.832038976253
    25      0.000373817289
    26      0.028588300946
    27      0.002263632580
    28      0.026474037323
    29     -0.000000000000
    30     -0.000000000000
    31     -0.000598629120
    32      0.087128772633
    33      0.042821929481
    34     -0.178230350692
    35      0.000000000000
    36     -0.000000000000
    37      0.001302873072
    38      0.000000000000
    39      0.000784041689
    40      0.008178670559
    41      0.000000000000
    42      0.010050899498
    43      0.006642771080
    44     -0.000000000000
    45     -0.008073244078
    46      0.005680659256
    47      0.000000000000
    48      0.059011631339
    49     -0.023181465887
    50      0.000000000000
    51      0.008237110396
    52     -0.019940550337
    53     -0.000000000000
    54     -0.109930020853
    55      0.272109179810
Sym=X
Ene=     0.7230346961
Spin=Alpha
Occup=0.0000
     1      0.318868386020
     2     -1.017887843015
     3      0.002327993345
     4     -0.013388901124
     5      0.019174762553
     6      0.293747677263
     7      0.506083416095
     8     -0.245663241049
     9     -0.318868386020
    10      1.017887843015
    11      0.002327993345
    12      0.013388901124
    13     -0.019174762553
    14      0.293747677263
    15     -0.506083416095
    16      0.245663241050
    17     -0.000000000000
    18     -0.000000000000
    19     -0.108207976689
    20      0.000000000000
    21     -0.000000000000
    22      0.000000000001
    23      0.739818946868
    24      0.000000000000
    25      0.000000000000
    26      0.000000000000
    27      0.000000000000
    28      0.000000000000
    29     -0.006863052997
    30     -0.005246791570
    31      0.000000000000
    32     -0.000000000000
    33     -0.000000000000
    34     -0.000000000000
    35      0.232863628529
    36     -0.008782452133
    37     -0.000000000000
    38      0.027880034728
    39      0.000000000000
    40     -0.000000000000
    41      0.015272353688
    42     -0.000000000000
    43     -0.000000000000
    44      0.002558973551
    45      0.000000000000
    46     -0.000000000000
    47      0.003506437887
    48     -0.000000000000
    49      0.000000000000
    50      0.043668250369
    51     -0.000000000000
    52      0.000000000000
    53     -0.663902990412
    54      0.000000000000
    55     -0.000000000001
Sym=X
Ene=     0.7266242873
Spin=Alpha
Occup=0.0000
     1      0.039712684086
     2     -0.081572249140
     3      0.017425682225
     4     -0.021157360631
     5      0.025875349143
     6     -0.109598636825
     7      0.429778399632
     8     -0.247374324267
     9      0.039712684085
    10     -0.081572249139
    11     -0.017425682225
    12     -0.021157360631
    13      0.025875349143
    14      0.109598636825
    15      0.429778399631
    16     -0.247374324267
    17      0.010487276268
    18      0.270611984020
    19     -0.000000000000
    20     -0.181430502591
    21      0.256490330673
    22     -0.172271721403
    23      0.000000000000
    24     -0.030897181335
    25     -0.032535775242
    26     -0.027148520801
    27     -0.006387592418
    28     -0.010181560035
    29     -0.000000000000
    30     -0.000000000000
    31     -0.002590839207
    32      0.180445448462
    33      0.129010251810
    34      0.028980173258
    35      0.000000000000
    36     -0.000000000000
    37      0.001874962831
    38      0.000000000000
    39     -0.011970139715
    40      0.037443015241
    41      0.000000000000
    42      0.000718825163
    43      0.026030415753
    44      0.000000000000
    45     -0.004259636336
    46      0.022551288324
    47      0.000000000000
    48      0.052876578128
    49     -0.034335642503
    50      0.000000000000
    51      0.008872760546
    52     -0.040587423024
    53     -0.000000000001
    54     -0.134674064499
    55      0.638755023902
Sym=X
Ene=     0.7720702043
Spin=Alpha
Occup=0.0000
     1      0.013904940511
     2     -0.128800224131
     3      0.004720673856
     4     -0.001490768734
     5     -0.022493290762
     6      0.093680304821
     7      0.092624890660
     8      0.293706082006
     9      0.013904940511
    10     -0.128800224131
    11     -0.004720673856
    12     -0.001490768734
    13     -0.022493290762
    14     -0.093680304821
    15      0.092624890660
    16      0.293706082006
    17      0.006358815636
    18      0.209064161779
    19      0.000000000000
    20     -0.122901421780
    21     -0.039949047201
    22     -0.090713919086
    23     -0.000000000000
    24      0.230756854882
    25     -0.212042125141
    26     -0.011352513394
    27     -0.011172238821
    28     -0.006146240081
    29      0.000000000000
    30     -0.000000000000
    31      0.004236545854
    32      0.130154936011
    33      0.108817420126
    34      0.042687237703
    35     -0.000000000000
    36     -0.000000000000
    37      0.016378642216
    38      0.000000000000
    39     -0.025835993012
    40      0.008426043767
    41     -0.000000000000
    42     -0.006866056605
    43     -0.001395517606
    44      0.000000000000
    45     -0.011085321227
    46      0.002536377400
    47      0.000000000000
    48      0.001074424482
    49      0.010760265767
    50      0.000000000000
    51     -0.054864597636
    52     -0.008729932887
    53     -0.000000000000
    54      0.902648021817
    55      0.209411815424
Sym=X
Ene=     0.7895560840
Spin=Alpha
Occup=0.0000
     1      0.310172363289
     2     -1.032066512936
     3      0.011660765635
     4     -0.013036631127
     5     -0.034165535128
     6      0.186811793184
     7      0.522320790871
     8      0.504147084487
     9     -0.310172363288
    10      1.032066512935
    11      0.011660765635
    12      0.013036631127
    13      0.034165535128
    14      0.186811793183
    15     -0.522320790870
    16     -0.504147084487
    17     -0.000000000000
    18     -0.000000000000
    19     -0.101283639756
    20     -0.000000000000
    21     -0.000000000000
    22      0.000000000002
    23      0.769083833150
    24      0.000000000000
    25      0.000000000000
    26      0.000000000000
    27      0.000000000000
    28      0.000000000000
    29     -0.006641234038
    30      0.011462641206
    31      0.000000000000
    32     -0.000000000000
    33     -0.000000000000
    34     -0.000000000000
    35      0.232436175590
    36      0.017436375602
    37     -0.000000000000
    38      0.017546051117
    39     -0.000000000000
    40     -0.000000000000
    41      0.010337421653
    42     -0.000000000000
    43     -0.000000000000
    44     -0.002281977692
    45     -0.000000000000
    46     -0.000000000000
    47     -0.006456319787
    48      0.000000000000
    49      0.000000000000
    50     -0.023926519680
    51      0.000000000000
    52      0.000000000000
    53      0.375088322124
    54     -0.000000000000
    55     -0.000000000000
Sym=X
Ene=     0.8124260187
Spin=Alpha
Occup=0.0000
     1      0.176959222046
     2     -0.947186851620
     3      0.009781361735
     4     -0.023523894939
     5     -0.028182033918
     6      0.355953274343
     7      0.653884360324
     8      0.333229008128
     9      0.176959222046
    10     -0.947186851621
    11     -0.009781361735
    12     -0.023523894939
    13     -0.028182033918
    14     -0.355953274343
    15      0.653884360325
    16      0.333229008128
    17     -0.014876987497
    18     -0.295241876193
    19      0.000000000000
    20     -0.314651283160
    21     -0.270213094639
    22      1.948041982119
    23     -0.000000000000
    24      0.721551195376
    25      0.018731345269
    26      0.013982955947
    27      0.030485542880
    28      0.035373799495
    29      0.000000000000
    30     -0.000000000000
    31      0.004362621309
    32      0.097767484364
    33     -0.006972146372
    34     -0.157864093722
    35     -0.000000000000
    36     -0.000000000000
    37     -0.000046470892
    38     -0.000000000000
    39     -0.034698727473
    40     -0.042930740926
    41     -0.000000000000
    42      0.001566390692
    43     -0.028092457436
    44     -0.000000000000
    45     -0.017602439375
    46     -0.023925077315
    47      0.000000000000
    48      0.030437285331
    49     -0.003339149023
    50      0.000000000000
    51      0.011387548527
    52      0.017365988280
    53     -0.000000000000
    54     -0.242201941755
    55     -0.300445495742
Sym=X
Ene=     0.8634997812
Spin=Alpha
Occup=0.0000
     1      0.139448365992
     2     -0.432235694235
     3      0.012307910307
     4     -0.007214342997
     5      0.029961527464
     6     -0.015376166936
     7      0.256528300780
     8     -0.540280542995
     9     -0.139448365992
    10      0.432235694235
    11      0.012307910307
    12      0.007214342997
    13     -0.029961527464
    14     -0.015376166936
    15     -0.256528300780
    16      0.540280542995
    17     -0.000000000000
    18     -0.000000000000
    19     -0.034576063848
    20      0.000000000000
    21      0.000000000000
    22      0.000000000000
    23      0.326987547981
    24      0.000000000000
    25      0.000000000000
    26      0.000000000000
    27      0.000000000000
    28      0.000000000000
    29     -0.001974585528
    30     -0.013114787711
    31     -0.000000000000
    32     -0.000000000000
    33     -0.000000000000
    34     -0.000000000000
    35      0.101433153785
    36     -0.018605880300
    37     -0.000000000000
    38      0.004077544770
    39      0.000000000000
    40      0.000000000000
    41      0.002173860989
    42     -0.000000000000
    43      0.000000000000
    44     -0.002974333471
    45      0.000000000000
    46      0.000000000000
    47      0.005953613133
    48      0.000000000000
    49     -0.000000000000
    50     -0.031020386881
    51     -0.000000000000
    52      0.000000000000
    53      0.681039281476
    54      0.000000000000
    55     -0.000000000000
Sym=X
Ene=     0.8878813136
Spin=Alpha
Occup=0.0000
     1      0.063998820109
     2     -0.564656095422
     3      0.003544895244
     4     -0.006649458089
     5      0.037332689639
     6      0.239465336871
     7      0.256874876613
     8     -0.609681136066
     9      0.063998820109
    10     -0.564656095423
    11     -0.003544895244
    12     -0.006649458089
    13      0.037332689639
    14     -0.239465336871
    15      0.256874876613
    16     -0.609681136066
    17     -0.015991278958
    18     -0.270745785489
    19     -0.000000000000
    20     -0.178440397219
    21      0.128653826461
    22      1.265811435213
    23     -0.000000000000
    24      0.541079542338
    25      0.371550136088
    26      0.018424371617
    27      0.021954230253
    28      0.026452316227
    29     -0.000000000000
    30      0.000000000000
    31     -0.010554592037
    32     -0.007571425371
    33     -0.054916504512
    34     -0.088596575079
    35     -0.000000000000
    36      0.000000000000
    37     -0.017513383814
    38     -0.000000000000
    39     -0.035850998175
    40     -0.003908117618
    41     -0.000000000000
    42     -0.006630070652
    43      0.007040813710
    44     -0.000000000000
    45     -0.016421062014
    46      0.000149610820
    47     -0.000000000000
    48      0.101489689304
    49     -0.084767976706
    50      0.000000000000
    51     -0.015267056573
    52      0.017101488793
    53     -0.000000000000
    54      0.363730086852
    55     -0.514141610020
Sym=X
Ene=     1.0314167816
Spin=Alpha
Occup=0.0000
     1      0.121050798022
     2     -1.356037940209
     3     -0.013999529538
     4      0.047283110151
     5      0.000547543948
     6      0.900921915833
     7     -0.080071879671
     8     -0.023398984810
     9     -0.121050798022
    10      1.356037940209
    11     -0.013999529538
    12     -0.047283110151
    13     -0.000547543948
    14      0.900921915833
    15      0.080071879671
    16      0.023398984810
    17     -0.000000000000
    18     -0.000000000001
    19     -0.489536524276
    20      0.000000000000
    21      0.000000000000
    22      0.000000000002
    23      1.390377760047
    24     -0.000000000000
    25     -0.000000000000
    26      0.000000000000
    27      0.000000000000
    28      0.000000000000
    29     -0.026262208531
    30     -0.000651391754
    31      0.000000000000
    32     -0.000000000000
    33     -0.000000000000
    34     -0.000000000000
    35      0.208953749772
    36     -0.000931868559
    37      0.000000000000
    38     -0.097582653995
    39      0.000000000000
    40      0.000000000000
    41     -0.023143326937
    42      0.000000000000
    43      0.000000000000
    44     -0.050068284504
    45      0.000000000000
    46      0.000000000000
    47      0.000154837704
    48     -0.000000000000
    49      0.000000000000
    50     -0.004584884186
    51     -0.000000000000
    52     -0.000000000000
    53      0.123664890252
    54      0.000000000000
    55      0.000000000000
Sym=X
Ene=     1.0774824796
Spin=Alpha
Occup=0.0000
     1      0.388980048460
     2     -0.611144544692
     3      0.013099454676
     4      0.001137232190
     5     -0.001712435634
     6     -0.154225876585
     7      0.147307989497
     8      0.056616520731
     9      0.388980048460
    10     -0.611144544693
    11     -0.013099454676
    12      0.001137232190
    13     -0.001712435634
    14      0.154225876585
    15      0.147307989497
    16      0.056616520731
    17     -0.050799443074
    18     -1.691129720179
    19      0.000000000000
    20      0.213947840046
    21      0.097402855211
    22      2.960015306371
    23     -0.000000000001
    24     -0.546909443018
    25     -0.199254822728
    26      0.092519080923
    27      0.104244204504
    28      0.096606427623
    29      0.000000000000
    30      0.000000000000
    31      0.001424389692
    32     -0.499101536839
    33     -0.485854475793
    34     -0.647393146304
    35     -0.000000000000
    36      0.000000000000
    37      0.012811755336
    38      0.000000000000
    39      0.089554317697
    40      0.030040628112
    41      0.000000000000
    42      0.050261141017
    43      0.013286370472
    44      0.000000000000
    45      0.036528157415
    46      0.013939732593
    47     -0.000000000000
    48     -0.025595679335
    49      0.030740493267
    50      0.000000000000
    51     -0.002519383727
    52     -0.002597273845
    53     -0.000000000000
    54      0.144530695018
    55      0.068910209567
Sym=X
Ene=     1.1973426806
Spin=Alpha
Occup=0.0000
     1      0.069663341964
     2      0.046741566139
     3      0.001933669546
     4      0.000282155081
     5      0.009701915946
     6     -0.059932655748
     7     -0.001984684947
     8     -0.379871532342
     9      0.069663341964
    10      0.046741566139
    11     -0.001933669546
    12      0.000282155081
    13      0.009701915946
    14      0.059932655748
    15     -0.001984684947
    16     -0.379871532342
    17      0.007321160330
    18      0.014434535849
    19     -0.000000000000
    20      0.061625855082
    21     -0.550153130442
    22     -0.168950403937
    23     -0.000000000000
    24     -0.226739797181