[Molden Format]
[Atoms] (AU)
H        1     1      1.6380335020     1.1365568804     9.4486306228
H        2     1     -1.6380335020     1.1365568804     9.4486306228
O        3     8      0.0000000000    -0.1432223430     9.4486306228
He       4     2      0.0000000000     0.0000000000    14.1729459342
[GTO]
1 0
 s 3 1.00
      18.7311370      0.0334946000
       2.8253937      0.2347269500
       0.6401217      0.8137573300
 s 1 1.00
       0.1612778      1.0000000000
 p 1 1.00
       1.5000000      1.0000000000
 p 1 1.00
       0.3750000      1.0000000000

2 0
 s 3 1.00
      18.7311370      0.0334946000
       2.8253937      0.2347269500
       0.6401217      0.8137573300
 s 1 1.00
       0.1612778      1.0000000000
 p 1 1.00
       1.5000000      1.0000000000
 p 1 1.00
       0.3750000      1.0000000000

3 0
 s 6 1.00
    5484.6717000      0.0018311000
     825.2349500      0.0139501000
     188.0469600      0.0684451000
      52.9645000      0.2327143000
      16.8975700      0.4701930000
       5.7996353      0.3585209000
 s 3 1.00
      15.5396160     -0.1107775000
       3.5999336     -0.1480263000
       1.0137618      1.1307670000
 p 3 1.00
      15.5396160      0.0708743000
       3.5999336      0.3397528000
       1.0137618      0.7271586000
 s 1 1.00
       0.2700058      1.0000000000
 p 1 1.00
       0.2700058      1.0000000000
 d 1 1.00
       2.5840000      1.0000000000
 d 1 1.00
       0.6460000      1.0000000000
 f 1 1.00
       1.4000000      1.0000000000

4 0
 s 3 1.00
      38.4216340      0.0237660000
       5.7780300      0.1546790000
       1.2417740      0.4696300000
 s 1 1.00
       0.2979640      1.0000000000
 p 1 1.00
       1.5000000      1.0000000000
 p 1 1.00
       0.3750000      1.0000000000

[MO]
 Sym= X
 Ene=    -20.5856678775
 Spin= Alpha
 Occup= 2.0000
     1      0.000279772637
     2     -0.000350466250
     3     -0.000130042586
     4     -0.000099122167
     5      0.000000061531
     6      0.000035425912
     7      0.000002236306
     8     -0.000008826551
     9      0.000279772637
    10     -0.000350466250
    11      0.000130042586
    12     -0.000099122167
    13      0.000000061531
    14     -0.000035425912
    15      0.000002236306
    16     -0.000008826551
    17      0.995793682121
    18      0.001617623732
    19     -0.000000000000
    20      0.002210099247
    21     -0.000008488136
    22      0.003847513262
    23     -0.000000000000
    24      0.000328544069
    25      0.000036265497
    26      0.006684693853
    27      0.006722757751
    28      0.006817801607
    29      0.000000000000
    30     -0.000000000000
    31     -0.000000212244
    32     -0.001571711328
    33     -0.001429912042
    34     -0.001244106061
    35     -0.000000000000
    36      0.000000000000
    37      0.000006103495
    38      0.000000000000
    39     -0.001130423591
    40     -0.000006862445
    41      0.000000000000
    42     -0.000517446199
    43     -0.000002714017
    44     -0.000000000000
    45     -0.000499032519
    46     -0.000003184672
    47      0.000000000000
    48      0.000021605817
    49     -0.000050760158
    50      0.000000000000
    51     -0.000004108241
    52     -0.000028353726
    53     -0.000000000000
    54      0.000010592004
    55      0.000073874530
 Sym= X
 Ene=     -1.2819428613
 Spin= Alpha
 Occup= 2.0000
     1      0.106294212491
     2      0.027754978854
     3     -0.010375525522
     4     -0.007485709806
     5      0.000004729534
     6     -0.007717959721
     7     -0.004635591255
     8      0.000004505701
     9      0.106294212491
    10      0.027754978854
    11      0.010375525522
    12     -0.007485709806
    13      0.000004729534
    14      0.007717959721
    15     -0.004635591255
    16      0.000004505701
    17     -0.211001892863
    18      0.493842669563
    19     -0.000000000000
    20      0.051858334611
    21      0.000283296099
    22      0.412462268770
    23     -0.000000000000
    24      0.025030115094
    25      0.000130524008
    26      0.005834244210
    27      0.004493257251
    28      0.001665701200
    29      0.000000000000
    30     -0.000000000000
    31      0.000004420114
    32      0.025117077007
    33      0.023244811715
    34      0.014945244196
    35     -0.000000000000
    36      0.000000000000
    37      0.000010259278
    38      0.000000000000
    39      0.004070330941
    40      0.000014879121
    41     -0.000000000000
    42      0.004833148593
    43      0.000005220725
    44      0.000000000000
    45      0.000632651740
    46      0.000002470955
    47     -0.000000000000
    48      0.007890692826
    49      0.006602433712
    50      0.000000000000
    51      0.000067509776
    52     -0.000434194383
    53     -0.000000000000
    54     -0.000225597644
    55     -0.000378763745
 Sym= X
 Ene=     -0.8975109625
 Spin= Alpha
 Occup= 2.0000
     1      0.002956150501
     2     -0.008275702869
     3     -0.000480977831
     4     -0.000391210135
     5      0.000237504032
     6      0.002971782830
     7      0.002193010764
     8     -0.003634687080
     9      0.002956150501
    10     -0.008275702869
    11      0.000480977831
    12     -0.000391210135
    13      0.000237504032
    14     -0.002971782830
    15      0.002193010764
    16     -0.003634687080
    17     -0.006304237887
    18      0.011407172221
    19      0.000000000000
    20      0.002604132114
    21     -0.018641065063
    22      0.029731504552
    23      0.000000000000
    24      0.007587231842
    25     -0.012418252489
    26      0.000407953599
    27      0.000412144383
    28      0.000200229995
    29     -0.000000000000
    30      0.000000000000
    31     -0.000208609083
    32      0.000553453296
    33      0.000049411464
    34     -0.003113487547
    35     -0.000000000000
    36      0.000000000000
    37      0.000057617810
    38     -0.000000000000
    39      0.000052550045
    40     -0.000260042306
    41     -0.000000000000
    42      0.000122496150
    43     -0.000086462062
    44      0.000000000000
    45     -0.000093498529
    46     -0.000062072456
    47     -0.000000000000
    48     -0.590886055629
    49     -0.512783926347
    50     -0.000000000000
    51     -0.000090347667
    52     -0.000088705512
    53      0.000000000000
    54     -0.002625351732
    55     -0.004195858665
 Sym= X
 Ene=     -0.6352664230
 Spin= Alpha
 Occup= 2.0000
     1      0.216749276472
     2      0.179468081031
     3     -0.007054931954
     4     -0.010550627740
     5     -0.000005551702
     6     -0.011453893458
     7     -0.013608445202
     8      0.000020997920
     9     -0.216749276472
    10     -0.179468081031
    11     -0.007054931954
    12      0.010550627740
    13      0.000005551702
    14     -0.011453893458
    15      0.013608445202
    16     -0.000020997920
    17      0.000000000000
    18      0.000000000000
    19      0.484362417770
    20     -0.000000000000
    21     -0.000000000000
    22     -0.000000000000
    23      0.286551174629
    24     -0.000000000000
    25     -0.000000000000
    26     -0.000000000000
    27      0.000000000000
    28      0.000000000000
    29      0.010191373680
    30     -0.000013888283
    31     -0.000000000000
    32      0.000000000000
    33     -0.000000000000
    34      0.000000000000
    35      0.031739585954
    36     -0.000006240259
    37     -0.000000000000
    38      0.008376113990
    39     -0.000000000000
    40      0.000000000000
    41      0.003268337030
    42     -0.000000000000
    43      0.000000000000
    44     -0.002774247552
    45      0.000000000000
    46      0.000000000000
    47     -0.000015184954
    48      0.000000000000
    49     -0.000000000000
    50      0.000113821775
    51     -0.000000000000
    52     -0.000000000000
    53      0.001419389579
    54     -0.000000000000
    55     -0.000000000000
 Sym= X
 Ene=     -0.5481229314
 Spin= Alpha
 Occup= 2.0000
     1      0.149221605729
     2      0.130939694079
     3     -0.007518616281
     4     -0.000611101251
     5      0.000076883283
     6     -0.014811158847
     7      0.012987933511
     8     -0.000305430435
     9      0.149221605729
    10      0.130939694079
    11      0.007518616281
    12     -0.000611101251
    13      0.000076883283
    14      0.014811158847
    15      0.012987933511
    16     -0.000305430435
    17      0.066377654210
    18     -0.130569026601
    19      0.000000000000
    20      0.540952698934
    21      0.003401181402
    22     -0.326915759937
    23     -0.000000000000
    24      0.380065013874
    25      0.003415443979
    26     -0.002114103805
    27      0.001084567228
    28     -0.007041953659
    29      0.000000000000
    30      0.000000000000
    31     -0.000014949463
    32      0.013118588193
    33      0.037079090378
    34     -0.003357212385
    35     -0.000000000000
    36      0.000000000000
    37      0.000231012460
    38      0.000000000000
    39     -0.000642862321
    40     -0.000294719551
    41      0.000000000000
    42      0.002590153754
    43     -0.000059467226
    44      0.000000000000
    45     -0.004921579548
    46     -0.000105977088
    47      0.000000000000
    48      0.001614095940
    49     -0.004427394448
    50      0.000000000000
    51     -0.000331523094
    52     -0.000948988314
    53     -0.000000000000
    54      0.003745248727
    55      0.005447643281
 Sym= X
 Ene=     -0.4929393991
 Spin= Alpha
 Occup= 2.0000
     1     -0.000670794025
     2     -0.005535100675
     3     -0.000031048258
     4     -0.000062899630
     5      0.006335099013
     6      0.001529540635
     7      0.001048939868
     8      0.029740631233
     9     -0.000670794025
    10     -0.005535100675
    11      0.000031048258
    12     -0.000062899630
    13      0.006335099013
    14     -0.001529540635
    15      0.001048939868
    16      0.029740631233
    17     -0.000511841173
    18      0.001007578411
    19      0.000000000000
    20     -0.001546790263
    21      0.648097950451
    22      0.007234454579
    23     -0.000000000000
    24      0.001455677499
    25      0.480114247496
    26      0.000127449968
    27      0.000138343125
    28      0.000191216655
    29      0.000000000000
    30      0.000000000000
    31      0.003774093094
    32      0.000890276049
    33      0.000599400371
    34      0.000306542468
    35     -0.000000000000
    36     -0.000000000000
    37      0.019897806184
    38     -0.000000000000
    39      0.000016143778
    40     -0.010939150839
    41      0.000000000000
    42      0.000007841776
    43      0.002450109465
    44      0.000000000000
    45     -0.000010068782
    46     -0.000112160027
    47      0.000000000000
    48     -0.042055778871
    49     -0.028858214260
    50      0.000000000000
    51     -0.000291272079
    52     -0.000543361286
    53     -0.000000000000
    54      0.000782250795
    55     -0.012481191946
 Sym= X
 Ene=      0.1736649311
 Spin= Alpha
 Occup= 0.0000
     1      0.101353064329
     2      1.058705685750
     3      0.011751793847
     4      0.007873136709
     5     -0.000102456974
     6     -0.099919990012
     7     -0.071339059628
     8      0.001474152506
     9      0.101353064329
    10      1.058705685749
    11     -0.011751793847
    12      0.007873136709
    13     -0.000102456974
    14      0.099919990012
    15     -0.071339059628
    16      0.001474152506
    17      0.103299748313
    18      0.076533925297
    19     -0.000000000000
    20     -0.270874686712
    21      0.002241190622
    22     -1.591602458241
    23     -0.000000000000
    24     -0.665680328044
    25     -0.002145100050
    26     -0.018038473288
    27     -0.023326848611
    28     -0.027911622191
    29      0.000000000000
    30     -0.000000000000
    31      0.000063264684
    32      0.064795222415
    33      0.062954125083
    34      0.116080882277
    35     -0.000000000000
    36     -0.000000000000
    37     -0.000213450173
    38      0.000000000000
    39      0.015515753347
    40      0.000652681087
    41      0.000000000000
    42      0.004228024912
    43      0.000239719803
    44      0.000000000000
    45      0.009443178050
    46      0.000268390311
    47      0.000000000000
    48     -0.030751116836
    49     -0.021681953643
    50     -0.000000000000
    51     -0.000088422713
    52      0.000012410394
    53      0.000000000000
    54      0.007060881974
    55     -0.014131900407
 Sym= X
 Ene=      0.2556586030
 Spin= Alpha
 Occup= 0.0000
     1      0.096362226918
     2      1.313302299151
     3      0.007345158551
     4      0.006855816908
     5     -0.000134096527
     6     -0.101910876907
     7     -0.074120367753
     8      0.000988902117
     9     -0.096362226918
    10     -1.313302299151
    11      0.007345158551
    12     -0.006855816908
    13      0.000134096527
    14     -0.101910876907
    15      0.074120367753
    16     -0.000988902117
    17     -0.000000000000
    18     -0.000000000000
    19     -0.373505038545
    20      0.000000000000
    21     -0.000000000000
    22      0.000000000000
    23     -0.969839851188
    24      0.000000000000
    25     -0.000000000000
    26      0.000000000000
    27      0.000000000000
    28      0.000000000000
    29      0.009586584512
    30      0.000022049201
    31      0.000000000000
    32      0.000000000000
    33     -0.000000000000
    34     -0.000000000000
    35     -0.061125900301
    36      0.000024881017
    37     -0.000000000000
    38      0.019572823934
    39      0.000000000000
    40     -0.000000000000
    41      0.011109357255
    42      0.000000000000
    43     -0.000000000000
    44      0.014796383984
    45      0.000000000000
    46      0.000000000000
    47     -0.000015865629
    48      0.000000000000
    49      0.000000000000
    50     -0.001187220799
    51     -0.000000000000
    52      0.000000000000
    53      0.022152293839
    54      0.000000000000
    55      0.000000000000
 Sym= X
 Ene=      0.6446833434
 Spin= Alpha
 Occup= 0.0000
     1      0.240844429502
     2     -0.796233576694
     3     -0.024219931389
     4      0.014837132036
     5      0.007559948208
     6      0.766591446721
     7     -0.044420197680
     8     -0.063049193767
     9      0.240844429502
    10     -0.796233576694
    11      0.024219931389
    12      0.014837132036
    13      0.007559948208
    14     -0.766591446721
    15     -0.044420197680
    16     -0.063049193767
    17     -0.005453450517
    18     -0.235925397942
    19      0.000000000000
    20     -0.083713454900
    21      0.071780635238
    22      1.570614409088
    23     -0.000000000000
    24      0.832038976258
    25      0.000373817292
    26      0.028588300946
    27      0.002263632581
    28      0.026474037323
    29      0.000000000000
    30     -0.000000000000
    31     -0.000598629120
    32      0.087128772630
    33      0.042821929478
    34     -0.178230350693
    35     -0.000000000000
    36      0.000000000000
    37      0.001302873072
    38      0.000000000000
    39      0.000784041690
    40      0.008178670558
    41     -0.000000000000
    42      0.010050899498
    43      0.006642771079
    44      0.000000000000
    45     -0.008073244078
    46      0.005680659256
    47     -0.000000000000
    48      0.059011631337
    49     -0.023181465884
    50     -0.000000000000
    51      0.008237110396
    52     -0.019940550336
    53      0.000000000000
    54     -0.109930020851
    55      0.272109179801
 Sym= X
 Ene=      0.7230346961
 Spin= Alpha
 Occup= 0.0000
     1      0.318868386025
     2     -1.017887843036
     3      0.002327993345
     4     -0.013388901124
     5      0.019174762552
     6      0.293747677265
     7      0.506083416103
     8     -0.245663241049
     9     -0.318868386025
    10      1.017887843036
    11      0.002327993345
    12      0.013388901124
    13     -0.019174762552
    14      0.293747677265
    15     -0.506083416103
    16      0.245663241049
    17     -0.000000000000
    18     -0.000000000000
    19     -0.108207976688
    20      0.000000000000
    21     -0.000000000000
    22      0.000000000000
    23      0.739818946886
    24      0.000000000000
    25      0.000000000000
    26      0.000000000000
    27      0.000000000000
    28      0.000000000000
    29     -0.006863052997
    30     -0.005246791570
    31      0.000000000000
    32     -0.000000000000
    33     -0.000000000000
    34     -0.000000000000
    35      0.232863628531
    36     -0.008782452133
    37     -0.000000000000
    38      0.027880034728
    39      0.000000000000
    40     -0.000000000000
    41      0.015272353688
    42     -0.000000000000
    43     -0.000000000000
    44      0.002558973550
    45      0.000000000000
    46     -0.000000000000
    47      0.003506437887
    48     -0.000000000000
    49      0.000000000000
    50      0.043668250368
    51     -0.000000000000
    52      0.000000000000
    53     -0.663902990401
    54      0.000000000000
    55     -0.000000000000
 Sym= X
 Ene=      0.7266242873
 Spin= Alpha
 Occup= 0.0000
     1      0.039712684091
     2     -0.081572249166
     3      0.017425682225
     4     -0.021157360631
     5      0.025875349143
     6     -0.109598636812
     7      0.429778399638
     8     -0.247374324269
     9      0.039712684091
    10     -0.081572249165
    11     -0.017425682225
    12     -0.021157360631
    13      0.025875349143
    14      0.109598636812
    15      0.429778399638
    16     -0.247374324269
    17      0.010487276267
    18      0.270611984002
    19     -0.000000000000
    20     -0.181430502596
    21      0.256490330670
    22     -0.172271721338
    23      0.000000000000
    24     -0.030897181322
    25     -0.032535775233
    26     -0.027148520800
    27     -0.006387592417
    28     -0.010181560034
    29     -0.000000000000
    30     -0.000000000000
    31     -0.002590839207
    32      0.180445448461
    33      0.129010251806
    34      0.028980173250
    35      0.000000000000
    36     -0.000000000000
    37      0.001874962832
    38      0.000000000000
    39     -0.011970139714
    40      0.037443015240
    41      0.000000000000
    42      0.000718825163
    43      0.026030415752
    44      0.000000000000
    45     -0.004259636336
    46      0.022551288323
    47      0.000000000000
    48      0.052876578126
    49     -0.034335642496
    50      0.000000000000
    51      0.008872760546
    52     -0.040587423024
    53     -0.000000000000
    54     -0.134674064511
    55      0.638755023903
 Sym= X
 Ene=      0.7720702043
 Spin= Alpha
 Occup= 0.0000
     1      0.013904940511
     2     -0.128800224127
     3      0.004720673856
     4     -0.001490768734
     5     -0.022493290762
     6      0.093680304816
     7      0.092624890659
     8      0.293706082003
     9      0.013904940511
    10     -0.128800224127
    11     -0.004720673856
    12     -0.001490768734
    13     -0.022493290762
    14     -0.093680304816
    15      0.092624890659
    16      0.293706082003
    17      0.006358815635
    18      0.209064161774
    19      0.000000000000
    20     -0.122901421777
    21     -0.039949047198
    22     -0.090713919087
    23     -0.000000000000
    24      0.230756854870
    25     -0.212042125146
    26     -0.011352513394
    27     -0.011172238821
    28     -0.006146240081
    29      0.000000000000
    30     -0.000000000000
    31      0.004236545854
    32      0.130154936009
    33      0.108817420124
    34      0.042687237701
    35     -0.000000000000
    36     -0.000000000000
    37      0.016378642216
    38      0.000000000000
    39     -0.025835993011
    40      0.008426043768
    41      0.000000000000
    42     -0.006866056605
    43     -0.001395517605
    44      0.000000000000
    45     -0.011085321226
    46      0.002536377400
    47      0.000000000000
    48      0.001074424482
    49      0.010760265767
    50      0.000000000000
    51     -0.054864597636
    52     -0.008729932887
    53     -0.000000000000
    54      0.902648021817
    55      0.209411815435
 Sym= X
 Ene=      0.7895560840
 Spin= Alpha
 Occup= 0.0000
     1      0.310172363285
     2     -1.032066512926
     3      0.011660765635
     4     -0.013036631127
     5     -0.034165535128
     6      0.186811793180
     7      0.522320790863
     8      0.504147084495
     9     -0.310172363285
    10      1.032066512926
    11      0.011660765635
    12      0.013036631127
    13      0.034165535128
    14      0.186811793180
    15     -0.522320790863
    16     -0.504147084494
    17     -0.000000000000
    18     -0.000000000000
    19     -0.101283639752
    20     -0.000000000000
    21      0.000000000000
    22      0.000000000000
    23      0.769083833146
    24      0.000000000000
    25     -0.000000000000
    26      0.000000000000
    27      0.000000000000
    28      0.000000000000
    29     -0.006641234038
    30      0.011462641206
    31      0.000000000000
    32     -0.000000000000
    33     -0.000000000000
    34     -0.000000000000
    35      0.232436175586
    36      0.017436375601
    37     -0.000000000000
    38      0.017546051116
    39     -0.000000000000
    40      0.000000000000
    41      0.010337421653
    42     -0.000000000000
    43      0.000000000000
    44     -0.002281977692
    45     -0.000000000000
    46      0.000000000000
    47     -0.006456319787
    48      0.000000000000
    49      0.000000000000
    50     -0.023926519680
    51     -0.000000000000
    52     -0.000000000000
    53      0.375088322125
    54      0.000000000000
    55      0.000000000000
 Sym= X
 Ene=      0.8124260187
 Spin= Alpha
 Occup= 0.0000
     1      0.176959222050
     2     -0.947186851632
     3      0.009781361735
     4     -0.023523894939
     5     -0.028182033918
     6      0.355953274342
     7      0.653884360325
     8      0.333229008136
     9      0.176959222050
    10     -0.947186851632
    11     -0.009781361735
    12     -0.023523894939
    13     -0.028182033918
    14     -0.355953274342
    15      0.653884360325
    16      0.333229008136
    17     -0.014876987499
    18     -0.295241876215
    19      0.000000000000
    20     -0.314651283157
    21     -0.270213094640
    22      1.948041982165
    23     -0.000000000000
    24      0.721551195368
    25      0.018731345252
    26      0.013982955949
    27      0.030485542882
    28      0.035373799497
    29      0.000000000000
    30     -0.000000000000
    31      0.004362621309
    32      0.097767484357
    33     -0.006972146380
    34     -0.157864093730
    35     -0.000000000000
    36     -0.000000000000
    37     -0.000046470892
    38      0.000000000000
    39     -0.034698727472
    40     -0.042930740924
    41     -0.000000000000
    42      0.001566390692
    43     -0.028092457435
    44      0.000000000000
    45     -0.017602439374
    46     -0.023925077315
    47     -0.000000000000
    48      0.030437285333
    49     -0.003339149025
    50      0.000000000000
    51      0.011387548526
    52      0.017365988280
    53     -0.000000000000
    54     -0.242201941743
    55     -0.300445495750
 Sym= X
 Ene=      0.8634997812
 Spin= Alpha
 Occup= 0.0000
     1      0.139448365992
     2     -0.432235694235
     3      0.012307910307
     4     -0.007214342997
     5      0.029961527463
     6     -0.015376166938
     7      0.256528300781
     8     -0.540280542988
     9     -0.139448365992
    10      0.432235694235
    11      0.012307910307
    12      0.007214342997
    13     -0.029961527463
    14     -0.015376166938
    15     -0.256528300781
    16      0.540280542988
    17     -0.000000000000
    18     -0.000000000000
    19     -0.034576063847
    20     -0.000000000000
    21      0.000000000000
    22      0.000000000000
    23      0.326987547981
    24      0.000000000000
    25      0.000000000000
    26      0.000000000000
    27      0.000000000000
    28      0.000000000000
    29     -0.001974585528
    30     -0.013114787711
    31     -0.000000000000
    32     -0.000000000000
    33     -0.000000000000
    34     -0.000000000000
    35      0.101433153784
    36     -0.018605880299
    37      0.000000000000
    38      0.004077544770
    39     -0.000000000000
    40     -0.000000000000
    41      0.002173860989
    42     -0.000000000000
    43      0.000000000000
    44     -0.002974333471
    45     -0.000000000000
    46     -0.000000000000
    47      0.005953613133
    48      0.000000000000
    49     -0.000000000000
    50     -0.031020386881
    51     -0.000000000000
    52      0.000000000000
    53      0.681039281485
    54      0.000000000000
    55     -0.000000000000
 Sym= X
 Ene=      0.8878813136
 Spin= Alpha
 Occup= 0.0000
     1      0.063998820112
     2     -0.564656095422
     3      0.003544895245
     4     -0.006649458088
     5      0.037332689639
     6      0.239465336868
     7      0.256874876613
     8     -0.609681136065
     9      0.063998820112
    10     -0.564656095423
    11     -0.003544895245
    12     -0.006649458088
    13      0.037332689639
    14     -0.239465336868
    15      0.256874876613
    16     -0.609681136065
    17     -0.015991278959
    18     -0.270745785494
    19      0.000000000000
    20     -0.178440397216
    21      0.128653826465
    22      1.265811435217
    23     -0.000000000000
    24      0.541079542329
    25      0.371550136089
    26      0.018424371617
    27      0.021954230253
    28      0.026452316227
    29      0.000000000000
    30      0.000000000000
    31     -0.010554592037
    32     -0.007571425372
    33     -0.054916504513
    34     -0.088596575082
    35     -0.000000000000
    36      0.000000000000
    37     -0.017513383813
    38      0.000000000000
    39     -0.035850998174
    40     -0.003908117618
    41     -0.000000000000
    42     -0.006630070652
    43      0.007040813710
    44      0.000000000000
    45     -0.016421062014
    46      0.000149610820
    47     -0.000000000000
    48      0.101489689306
    49     -0.084767976712
    50      0.000000000000
    51     -0.015267056573
    52      0.017101488793
    53     -0.000000000000
    54      0.363730086856
    55     -0.514141610019
 Sym= X
 Ene=      1.0314167816
 Spin= Alpha
 Occup= 0.0000
     1      0.121050798026
     2     -1.356037940204
     3     -0.013999529538
     4      0.047283110151
     5      0.000547543948
     6      0.900921915833
     7     -0.080071879678
     8     -0.023398984810
     9     -0.121050798026
    10      1.356037940204
    11     -0.013999529538
    12     -0.047283110151
    13     -0.000547543948
    14      0.900921915833
    15      0.080071879678
    16      0.023398984810
    17      0.000000000000
    18      0.000000000000
    19     -0.489536524271
    20     -0.000000000000
    21     -0.000000000000
    22     -0.000000000000
    23      1.390377760030
    24      0.000000000000
    25      0.000000000000
    26     -0.000000000000
    27     -0.000000000000
    28     -0.000000000000
    29     -0.026262208531
    30     -0.000651391754
    31     -0.000000000000
    32      0.000000000000
    33      0.000000000000
    34      0.000000000000
    35      0.208953749772
    36     -0.000931868559
    37     -0.000000000000
    38     -0.097582653993
    39     -0.000000000000
    40     -0.000000000000
    41     -0.023143326936
    42     -0.000000000000
    43     -0.000000000000
    44     -0.050068284504
    45     -0.000000000000
    46     -0.000000000000
    47      0.000154837703
    48      0.000000000000
    49     -0.000000000000
    50     -0.004584884186
    51      0.000000000000
    52      0.000000000000
    53      0.123664890254
    54     -0.000000000000
    55     -0.000000000000
 Sym= X
 Ene=      1.0774824796
 Spin= Alpha
 Occup= 0.0000
     1      0.388980048463
     2     -0.611144544666
     3      0.013099454677
     4      0.001137232191
     5     -0.001712435634
     6     -0.154225876603
     7      0.147307989474
     8      0.056616520726
     9      0.388980048463
    10     -0.611144544666
    11     -0.013099454677
    12      0.001137232191
    13     -0.001712435634
    14      0.154225876603
    15      0.147307989474
    16      0.056616520726
    17     -0.050799443073
    18     -1.691129720179
    19     -0.000000000000
    20      0.213947840049
    21      0.097402855209
    22      2.960015306315
    23      0.000000000000
    24     -0.546909443034
    25     -0.199254822716
    26      0.092519080923
    27      0.104244204504
    28      0.096606427622
    29     -0.000000000000
    30     -0.000000000000
    31      0.001424389691
    32     -0.499101536845
    33     -0.485854475797
    34     -0.647393146303
    35      0.000000000000
    36     -0.000000000000
    37      0.012811755335
    38     -0.000000000000
    39      0.089554317696
    40      0.030040628111
    41     -0.000000000000
    42      0.050261141016
    43      0.013286370472
    44     -0.000000000000
    45      0.036528157415
    46      0.013939732592
    47     -0.000000000000
    48     -0.025595679342
    49      0.030740493273
    50     -0.000000000000
    51     -0.002519383727
    52     -0.002597273845
    53      0.000000000000
    54      0.144530695014
    55      0.068910209575
 Sym= X
 Ene=      1.1973426806
 Spin= Alpha
 Occup= 0.0000
     1      0.069663341959
     2      0.046741566133
     3      0.001933669546
     4      0.000282155081
     5      0.009701915945
     6     -0.059932655742
     7     -0.001984684945
     8     -0.379871532338
     9      0.069663341959
    10      0.046741566133
    11     -0.001933669546
    12      0.000282155081
    13      0.009701915945