    -----------------------------------------------------------------------
          Psi4: An Open-Source Ab Initio Electronic Structure Package
                              Psi4 1.0.0 Driver

                          Git: Rev {master} 6a9a71b 

    J. M. Turney, A. C. Simmonett, R. M. Parrish, E. G. Hohenstein,
    F. A. Evangelista, J. T. Fermann, B. J. Mintz, L. A. Burns, J. J. Wilke,
    M. L. Abrams, N. J. Russ, M. L. Leininger, C. L. Janssen, E. T. Seidl,
    W. D. Allen, H. F. Schaefer, R. A. King, E. F. Valeev, C. D. Sherrill,
    and T. D. Crawford, WIREs Comput. Mol. Sci. 2, 556-565 (2012)
    (doi: 10.1002/wcms.93)

                         Additional Contributions by
    A. E. DePrince, U. Bozkaya, A. Yu. Sokolov, D. G. A. Smith, R. Di Remigio,
    R. M. Richard, J. F. Gonthier, H. R. McAlexander, M. Saitow, and
    B. P. Pritchard
    -----------------------------------------------------------------------


    Psi4 started on: Thu Aug 30 13:35:48 2018

    Process ID:  23498
    PSI4DATADIR: /Users/eirikkjonstad/Documents/psi4conda/share/psi4
    Memory level set to 256.000 MB

  ==> Input File <==

--------------------------------------------------------------------------

memory 8 gb

molecule test {
 H          0.00000       0.00000        0.00000
symmetry c1
}

set basis aug-cc-pvdz
set reference uhf
set print 10
h_energy = energy('scf')
--------------------------------------------------------------------------
/Users/eirikkjonstad/Documents/psi4conda/lib/python2.7/site-packages/v2rdm_casscf/v2rdm_casscf.so loaded.

  Memory set to   8.000 GiB by Python script.
   => Loading Basis Set <=

    Role: BASIS
    Keyword: BASIS
    Name: AUG-CC-PVDZ
    atoms 1 entry H          line    35 file /Users/eirikkjonstad/Documents/psi4conda/share/psi4/basis/aug-cc-pvdz.gbs

    There are an odd number of electrons - assuming doublet.
    Specify the multiplicity in the molecule input block.


*** tstart() called on dhcp-10-24-7-95.wlan.ntnu.no
*** at Thu Aug 30 13:35:49 2018


         ---------------------------------------------------------
                                   SCF
            by Justin Turney, Rob Parrish, and Andy Simmonett
                              UHF Reference
                        1 Threads,   8000 MiB Core
         ---------------------------------------------------------

  ==> Geometry <==

    Molecular point group: c1
    Geometry (in Angstrom), charge = 0, multiplicity = 2:

       Center              X                  Y                   Z               Mass       
    ------------   -----------------  -----------------  -----------------  -----------------
           H          0.000000000000     0.000000000000     0.000000000000     1.007825032070

           H
              BASIS           AUG-CC-PVDZ          3e7196597f57f7998553b45fd84984840e42efa2

  Running in c1 symmetry.

  Rotational constants: A = ************  B = ************  C = ************ [cm^-1]
  Rotational constants: A = ************  B = ************  C = ************ [MHz]
  Nuclear repulsion =    0.000000000000000

  Charge       = 0
  Multiplicity = 2
  Electrons    = 1
  Nalpha       = 1
  Nbeta        = 0

  ==> Algorithm <==

  SCF Algorithm Type is DF.
  DIIS enabled.
  MOM disabled.
  Fractional occupation disabled.
  Guess Type is GWH.
  Energy threshold   = 1.00e-06
  Density threshold  = 1.00e-06
  Integral threshold = 0.00e+00

  ==> Primary Basis <==

  -AO BASIS SET INFORMATION:
    Name                   = AUG-CC-PVDZ
    Total number of shells = 5
    Number of primitives   = 7
    Number of AO           = 9
    Number of SO           = 9
    Maximum AM             = 1
    Spherical Harmonics    = TRUE

  -Contraction Scheme:
    Atom   Type   All Primitives // Shells:
   ------ ------ --------------------------
       1     H     5s 2p // 3s 2p 

  ==> AO Basis Functions <==

    [ AUG-CC-PVDZ ]
    spherical
    ****
    H   1
    S   3 1.00
                        13.01000000           0.01968500
                         1.96200000           0.13797700
                         0.44460000           0.47814800
    S   1 1.00
                         0.12200000           1.00000000
    P   1 1.00
                         0.72700000           1.00000000
    S   1 1.00
                         0.02974000           1.00000000
    P   1 1.00
                         0.14100000           1.00000000
    ****

  ==> Pre-Iterations <==

   -------------------------------------------------------
    Irrep   Nso     Nmo     Nalpha   Nbeta   Ndocc  Nsocc
   -------------------------------------------------------
     A          9       9       0       0       0       0
   -------------------------------------------------------
    Total       9       9       1       0       0       1
   -------------------------------------------------------

  ==> Integral Setup <==

   => Loading Basis Set <=

    Role: JKFIT
    Keyword: DF_BASIS_SCF
    Name: 
    atoms 1 entry H          line    69 file /Users/eirikkjonstad/Documents/psi4conda/share/psi4/basis/aug-cc-pvdz-jkfit.gbs

  ==> DFJK: Density-Fitted J/K Matrices <==

    J tasked:                  Yes
    K tasked:                  Yes
    wK tasked:                  No
    OpenMP threads:              1
    Integrals threads:           1
    Memory (MB):              5722
    Algorithm:                Core
    Integral Cache:           NONE
    Schwarz Cutoff:          1E-12
    Fitting Condition:       1E-12

   => Auxiliary Basis Set <=

  -AO BASIS SET INFORMATION:
    Name                   = 
    Total number of shells = 12
    Number of primitives   = 12
    Number of AO           = 35
    Number of SO           = 32
    Maximum AM             = 2
    Spherical Harmonics    = TRUE

  -Contraction Scheme:
    Atom   Type   All Primitives // Shells:
   ------ ------ --------------------------
       1     H     5s 4p 3d // 5s 4p 3d 

  ==> AO Basis Functions <==

    [  ]
    spherical
    ****
    H   1
    S   1 1.00
                         9.53024933           1.00000000
    S   1 1.00
                         1.91745062           1.00000000
    S   1 1.00
                         0.68424049           1.00000000
    S   1 1.00
                         0.28413256           1.00000000
    P   1 1.00
                         2.91332320           1.00000000
    P   1 1.00
                         1.26212054           1.00000000
    P   1 1.00
                         0.50199776           1.00000000
    D   1 1.00
                         2.31353291           1.00000000
    D   1 1.00
                         0.71290724           1.00000000
    S   1 1.00
                         0.11798675           1.00000000
    P   1 1.00
                         0.19966536           1.00000000
    D   1 1.00
                         0.21967992           1.00000000
    ****

  ## One-electron Hamiltonian (Symmetry 0) ##
  Irrep: 1 Size: 9 x 9

                 1                   2                   3                   4                   5

    1    -0.40840455757686    -0.44847307461586     0.00000000000000     0.00000000000000     0.00000000000000
    2    -0.44847307461586    -0.37437819199838     0.00000000000000     0.00000000000000     0.00000000000000
    3     0.00000000000000     0.00000000000000     0.91041913920535     0.00000000000000     0.00000000000000
    4     0.00000000000000     0.00000000000000     0.00000000000000     0.91041913920535     0.00000000000000
    5     0.00000000000000     0.00000000000000     0.00000000000000     0.00000000000000     0.91041913920535
    6    -0.23664134591557    -0.26019436159375     0.00000000000000     0.00000000000000     0.00000000000000
    7     0.00000000000000     0.00000000000000    -0.05159018361890     0.00000000000000     0.00000000000000
    8     0.00000000000000     0.00000000000000     0.00000000000000    -0.05159018361890     0.00000000000000
    9     0.00000000000000     0.00000000000000     0.00000000000000     0.00000000000000    -0.05159018361890

                 6                   7                   8                   9

    1    -0.23664134591557     0.00000000000000     0.00000000000000     0.00000000000000
    2    -0.26019436159375     0.00000000000000     0.00000000000000     0.00000000000000
    3     0.00000000000000    -0.05159018361890     0.00000000000000     0.00000000000000
    4     0.00000000000000     0.00000000000000    -0.05159018361890     0.00000000000000
    5     0.00000000000000     0.00000000000000     0.00000000000000    -0.05159018361890
    6    -0.23058500017414     0.00000000000000     0.00000000000000     0.00000000000000
    7     0.00000000000000    -0.04697384929864     0.00000000000000     0.00000000000000
    8     0.00000000000000     0.00000000000000    -0.04697384929864     0.00000000000000
    9     0.00000000000000     0.00000000000000     0.00000000000000    -0.04697384929864



  Minimum eigenvalue in the overlap matrix is 1.5546690252E-01.
  Using Symmetric Orthogonalization.
  ## S (Symmetry 0) ##
  Irrep: 1 Size: 9 x 9

                 1                   2                   3                   4                   5

    1     1.00000000000000     0.68486025149275     0.00000000000000     0.00000000000000     0.00000000000000
    2     0.68486025149275     1.00000000000000     0.00000000000000     0.00000000000000     0.00000000000000
    3     0.00000000000000     0.00000000000000     1.00000000000000     0.00000000000000     0.00000000000000
    4     0.00000000000000     0.00000000000000     0.00000000000000     1.00000000000000     0.00000000000000
    5     0.00000000000000     0.00000000000000     0.00000000000000     0.00000000000000     1.00000000000000
    6     0.30373019508368     0.70740881957136     0.00000000000000     0.00000000000000     0.00000000000000
    7     0.00000000000000     0.00000000000000     0.46743107449350     0.00000000000000     0.00000000000000
    8     0.00000000000000     0.00000000000000     0.00000000000000     0.46743107449350     0.00000000000000
    9     0.00000000000000     0.00000000000000     0.00000000000000     0.00000000000000     0.46743107449350

                 6                   7                   8                   9

    1     0.30373019508368     0.00000000000000     0.00000000000000     0.00000000000000
    2     0.70740881957136     0.00000000000000     0.00000000000000     0.00000000000000
    3     0.00000000000000     0.46743107449350     0.00000000000000     0.00000000000000
    4     0.00000000000000     0.00000000000000     0.46743107449350     0.00000000000000
    5     0.00000000000000     0.00000000000000     0.00000000000000     0.46743107449350
    6     1.00000000000000     0.00000000000000     0.00000000000000     0.00000000000000
    7     0.00000000000000     1.00000000000000     0.00000000000000     0.00000000000000
    8     0.00000000000000     0.00000000000000     1.00000000000000     0.00000000000000
    9     0.00000000000000     0.00000000000000     0.00000000000000     1.00000000000000



  ## X (Symmetry 0) ##
  Irrep: 1 Size: 9 x 9

                 1                   2                   3                   4                   5

    1     1.31653103655388    -0.62976196499781     0.00000000000000    -0.00000000000000     0.00000000000000
    2    -0.62976196499781     1.75031791506748    -0.00000000000000     0.00000000000000     0.00000000000000
    3     0.00000000000000    -0.00000000000000     1.09789823447823    -0.00000000000000     0.00000000000000
    4    -0.00000000000000     0.00000000000000    -0.00000000000000     1.09789823447822     0.00000000000000
    5     0.00000000000000     0.00000000000000     0.00000000000000     0.00000000000000     1.09789823447823
    6     0.13431249216294    -0.66529292263066     0.00000000000000    -0.00000000000000     0.00000000000000
    7     0.00000000000000    -0.00000000000000    -0.27239050462348    -0.00000000000000     0.00000000000000
    8     0.00000000000000    -0.00000000000000    -0.00000000000000    -0.27239050462348     0.00000000000000
    9     0.00000000000000     0.00000000000000     0.00000000000000     0.00000000000000    -0.27239050462348

                 6                   7                   8                   9

    1     0.13431249216294     0.00000000000000     0.00000000000000     0.00000000000000
    2    -0.66529292263066    -0.00000000000000    -0.00000000000000     0.00000000000000
    3     0.00000000000000    -0.27239050462348     0.00000000000000     0.00000000000000
    4    -0.00000000000000     0.00000000000000    -0.27239050462348     0.00000000000000
    5     0.00000000000000     0.00000000000000     0.00000000000000    -0.27239050462348
    6     1.34989456182453     0.00000000000000     0.00000000000000     0.00000000000000
    7     0.00000000000000     1.09789823447823    -0.00000000000000     0.00000000000000
    8     0.00000000000000    -0.00000000000000     1.09789823447822     0.00000000000000
    9     0.00000000000000     0.00000000000000     0.00000000000000     1.09789823447823



  SCF Guess: Generalized Wolfsberg-Helmholtz.

  ## C alpha (Symmetry 0) ##
  Irrep: 1 Size: 9 x 9

                 1                   2                   3                   4                   5

    1     0.56736563794129    -0.00000000000000     0.00000000000000    -0.00000000000000    -0.72753397903659
    2     0.49157534435424    -0.00000000000000     0.00000000000000     0.00000000000000     0.17919218117031
    3    -0.00000000000000    -0.45600698073470     0.00000000000000     0.00000975749706     0.00000000000000
    4    -0.00000000000000     0.00000975749706     0.00000000000000     0.45600698073470    -0.00000000000000
    5     0.00000000000000     0.00000000000000     0.45600698083909     0.00000000000000     0.00000000000000
    6     0.04993310230993     0.00000000000000     0.00000000000000     0.00000000000000     0.88543161605960
    7     0.00000000000000     1.12829736073455     0.00000000000000    -0.00002414295974    -0.00000000000000
    8     0.00000000000000    -0.00002414295974     0.00000000000000    -1.12829736073455     0.00000000000000
    9     0.00000000000000     0.00000000000000    -1.12829736099285     0.00000000000000     0.00000000000000

                 6                   7                   8                   9

    1    -0.00000000000001     0.00000000000000     0.00000000000000     1.13872054980545
    2     0.00000000000001     0.00000000000000    -0.00000000000000    -1.90501219216491
    3    -0.00010783472179     0.00000000000000    -1.03519792410782     0.00000000000000
    4    -1.03519792410781     0.00000000000000     0.00010783472179    -0.00000000000001
    5     0.00000000000000     1.03519792972429     0.00000000000000     0.00000000000000
    6    -0.00000000000001     0.00000000000000     0.00000000000000     1.22326913844530
    7     0.00000841263021     0.00000000000000     0.08076004819979    -0.00000000000000
    8     0.08076004819979     0.00000000000000    -0.00000841263021     0.00000000000000
    9     0.00000000000000    -0.08076004863796     0.00000000000000     0.00000000000000



  ## C beta (Symmetry 0) ##
  Irrep: 1 Size: 9 x 9

                 1                   2                   3                   4                   5

    1     0.56736563794129    -0.00000000000000     0.00000000000000    -0.00000000000000    -0.72753397903659
    2     0.49157534435424    -0.00000000000000     0.00000000000000     0.00000000000000     0.17919218117031
    3    -0.00000000000000    -0.45600698073470     0.00000000000000     0.00000975749706     0.00000000000000
    4    -0.00000000000000     0.00000975749706     0.00000000000000     0.45600698073470    -0.00000000000000
    5     0.00000000000000     0.00000000000000     0.45600698083909     0.00000000000000     0.00000000000000
    6     0.04993310230993     0.00000000000000     0.00000000000000     0.00000000000000     0.88543161605960
    7     0.00000000000000     1.12829736073455     0.00000000000000    -0.00002414295974    -0.00000000000000
    8     0.00000000000000    -0.00002414295974     0.00000000000000    -1.12829736073455     0.00000000000000
    9     0.00000000000000     0.00000000000000    -1.12829736099285     0.00000000000000     0.00000000000000

                 6                   7                   8                   9

    1    -0.00000000000001     0.00000000000000     0.00000000000000     1.13872054980545
    2     0.00000000000001     0.00000000000000    -0.00000000000000    -1.90501219216491
    3    -0.00010783472179     0.00000000000000    -1.03519792410782     0.00000000000000
    4    -1.03519792410781     0.00000000000000     0.00010783472179    -0.00000000000001
    5     0.00000000000000     1.03519792972429     0.00000000000000     0.00000000000000
    6    -0.00000000000001     0.00000000000000     0.00000000000000     1.22326913844530
    7     0.00000841263021     0.00000000000000     0.08076004819979    -0.00000000000000
    8     0.08076004819979     0.00000000000000    -0.00000841263021     0.00000000000000
    9     0.00000000000000    -0.08076004863796     0.00000000000000     0.00000000000000



  ## SCF alpha density (Symmetry 0) ##
  Irrep: 1 Size: 9 x 9

                 1                   2                   3                   4                   5

    1     0.32190376711653     0.27890295884575    -0.00000000000000    -0.00000000000000     0.00000000000000
    2     0.27890295884575     0.24164631917699    -0.00000000000000    -0.00000000000000     0.00000000000000
    3    -0.00000000000000    -0.00000000000000     0.00000000000000     0.00000000000000     0.00000000000000
    4    -0.00000000000000    -0.00000000000000     0.00000000000000     0.00000000000000     0.00000000000000
    5     0.00000000000000     0.00000000000000     0.00000000000000     0.00000000000000     0.00000000000000
    6     0.02833032644646     0.02454588196268    -0.00000000000000    -0.00000000000000     0.00000000000000
    7     0.00000000000000     0.00000000000000    -0.00000000000000    -0.00000000000000     0.00000000000000
    8     0.00000000000000     0.00000000000000    -0.00000000000000    -0.00000000000000     0.00000000000000
    9     0.00000000000000     0.00000000000000     0.00000000000000     0.00000000000000     0.00000000000000

                 6                   7                   8                   9

    1     0.02833032644646     0.00000000000000     0.00000000000000     0.00000000000000
    2     0.02454588196268     0.00000000000000     0.00000000000000     0.00000000000000
    3    -0.00000000000000    -0.00000000000000    -0.00000000000000     0.00000000000000
    4    -0.00000000000000    -0.00000000000000    -0.00000000000000     0.00000000000000
    5     0.00000000000000     0.00000000000000     0.00000000000000     0.00000000000000
    6     0.00249331470629     0.00000000000000     0.00000000000000     0.00000000000000
    7     0.00000000000000     0.00000000000000     0.00000000000000     0.00000000000000
    8     0.00000000000000     0.00000000000000     0.00000000000000     0.00000000000000
    9     0.00000000000000     0.00000000000000     0.00000000000000     0.00000000000000



  ## SCF beta density (Symmetry 0) ##
  Irrep: 1 Size: 9 x 9

                 1                   2                   3                   4                   5

    1     0.00000000000000     0.00000000000000     0.00000000000000     0.00000000000000     0.00000000000000
    2     0.00000000000000     0.00000000000000     0.00000000000000     0.00000000000000     0.00000000000000
    3     0.00000000000000     0.00000000000000     0.00000000000000     0.00000000000000     0.00000000000000
    4     0.00000000000000     0.00000000000000     0.00000000000000     0.00000000000000     0.00000000000000
    5     0.00000000000000     0.00000000000000     0.00000000000000     0.00000000000000     0.00000000000000
    6     0.00000000000000     0.00000000000000     0.00000000000000     0.00000000000000     0.00000000000000
    7     0.00000000000000     0.00000000000000     0.00000000000000     0.00000000000000     0.00000000000000
    8     0.00000000000000     0.00000000000000     0.00000000000000     0.00000000000000     0.00000000000000
    9     0.00000000000000     0.00000000000000     0.00000000000000     0.00000000000000     0.00000000000000

                 6                   7                   8                   9

    1     0.00000000000000     0.00000000000000     0.00000000000000     0.00000000000000
    2     0.00000000000000     0.00000000000000     0.00000000000000     0.00000000000000
    3     0.00000000000000     0.00000000000000     0.00000000000000     0.00000000000000
    4     0.00000000000000     0.00000000000000     0.00000000000000     0.00000000000000
    5     0.00000000000000     0.00000000000000     0.00000000000000     0.00000000000000
    6     0.00000000000000     0.00000000000000     0.00000000000000     0.00000000000000
    7     0.00000000000000     0.00000000000000     0.00000000000000     0.00000000000000
    8     0.00000000000000     0.00000000000000     0.00000000000000     0.00000000000000
    9     0.00000000000000     0.00000000000000     0.00000000000000     0.00000000000000



  ## F alpha (Symmetry 0) ##
  Irrep: 1 Size: 9 x 9

                 1                   2                   3                   4                   5

    1    -0.40840455757686    -0.46908469189600     0.00000000000000     0.00000000000000     0.00000000000000
    2    -0.46908469189600    -0.37437819199838     0.00000000000000     0.00000000000000     0.00000000000000
    3     0.00000000000000     0.00000000000000     0.91041913920535     0.00000000000000     0.00000000000000
    4     0.00000000000000     0.00000000000000     0.00000000000000     0.91041913920535     0.00000000000000
    5     0.00000000000000     0.00000000000000     0.00000000000000     0.00000000000000     0.91041913920535
    6    -0.16982037015313    -0.37446176045153     0.00000000000000     0.00000000000000     0.00000000000000
    7    -0.00000000000000    -0.00000000000000     0.35315101467401     0.00000000000000     0.00000000000000
    8    -0.00000000000000    -0.00000000000000     0.00000000000000     0.35315101467401     0.00000000000000
    9    -0.00000000000000    -0.00000000000000     0.00000000000000     0.00000000000000     0.35315101467401

                 6                   7                   8                   9

    1    -0.16982037015313    -0.00000000000000    -0.00000000000000    -0.00000000000000
    2    -0.37446176045153    -0.00000000000000    -0.00000000000000    -0.00000000000000
    3     0.00000000000000     0.35315101467401     0.00000000000000     0.00000000000000
    4     0.00000000000000     0.00000000000000     0.35315101467401     0.00000000000000
    5     0.00000000000000     0.00000000000000     0.00000000000000     0.35315101467401
    6    -0.23058500017414    -0.00000000000000    -0.00000000000000    -0.00000000000000
    7    -0.00000000000000    -0.04697384929864    -0.00000000000000    -0.00000000000000
    8    -0.00000000000000    -0.00000000000000    -0.04697384929864    -0.00000000000000
    9    -0.00000000000000    -0.00000000000000    -0.00000000000000    -0.04697384929864



  ## F beta (Symmetry 0) ##
  Irrep: 1 Size: 9 x 9

                 1                   2                   3                   4                   5

    1    -0.40840455757686    -0.46908469189600     0.00000000000000     0.00000000000000     0.00000000000000
    2    -0.46908469189600    -0.37437819199838     0.00000000000000     0.00000000000000     0.00000000000000
    3     0.00000000000000     0.00000000000000     0.91041913920535     0.00000000000000     0.00000000000000
    4     0.00000000000000     0.00000000000000     0.00000000000000     0.91041913920535     0.00000000000000
    5     0.00000000000000     0.00000000000000     0.00000000000000     0.00000000000000     0.91041913920535
    6    -0.16982037015313    -0.37446176045153     0.00000000000000     0.00000000000000     0.00000000000000
    7    -0.00000000000000    -0.00000000000000     0.35315101467401     0.00000000000000     0.00000000000000
    8    -0.00000000000000    -0.00000000000000     0.00000000000000     0.35315101467401     0.00000000000000
    9    -0.00000000000000    -0.00000000000000     0.00000000000000     0.00000000000000     0.35315101467401

                 6                   7                   8                   9

    1    -0.16982037015313    -0.00000000000000    -0.00000000000000    -0.00000000000000
    2    -0.37446176045153    -0.00000000000000    -0.00000000000000    -0.00000000000000
    3     0.00000000000000     0.35315101467401     0.00000000000000     0.00000000000000
    4     0.00000000000000     0.00000000000000     0.35315101467401     0.00000000000000
    5     0.00000000000000     0.00000000000000     0.00000000000000     0.35315101467401
    6    -0.23058500017414    -0.00000000000000    -0.00000000000000    -0.00000000000000
    7    -0.00000000000000    -0.04697384929864    -0.00000000000000    -0.00000000000000
    8    -0.00000000000000    -0.00000000000000    -0.04697384929864    -0.00000000000000
    9    -0.00000000000000    -0.00000000000000    -0.00000000000000    -0.04697384929864



  ==> Iterations <==

                           Total Energy        Delta E     RMS |[F,P]|

  ## F alpha (Symmetry 0) ##
  Irrep: 1 Size: 9 x 9

                 1                   2                   3                   4                   5

    1    -0.34961476850037    -0.50950529152252     0.00000000000000     0.00000000000000    -0.00000000000000
    2    -0.50950529152252    -0.31031052313889    -0.00000000000000    -0.00000000000000     0.00000000000000
    3     0.00000000000000    -0.00000000000000     1.43502332407872     0.00000000000000     0.00000000000000
    4     0.00000000000000    -0.00000000000000     0.00000000000000     1.43502332407872    -0.00000000000000
    5    -0.00000000000000     0.00000000000000     0.00000000000000    -0.00000000000000     1.43502332407872
    6    -0.30379866212653    -0.19744047381815    -0.00000000000000    -0.00000000000000     0.00000000000000
    7    -0.00000000000000    -0.00000000000000     0.14755203796632     0.00000000000000     0.00000000000000
    8    -0.00000000000000    -0.00000000000000     0.00000000000000     0.14755203796632     0.00000000000000
    9    -0.00000000000000     0.00000000000000     0.00000000000000     0.00000000000000     0.14755203796632

                 6                   7                   8                   9

    1    -0.30379866212653    -0.00000000000000    -0.00000000000000    -0.00000000000000
    2    -0.19744047381815    -0.00000000000000    -0.00000000000000     0.00000000000000
    3    -0.00000000000000     0.14755203796632     0.00000000000000     0.00000000000000
    4    -0.00000000000000     0.00000000000000     0.14755203796632     0.00000000000000
    5     0.00000000000000     0.00000000000000     0.00000000000000     0.14755203796632
    6    -0.08530082542832    -0.00000000000000    -0.00000000000000     0.00000000000000
    7    -0.00000000000000     0.27790883291858     0.00000000000000     0.00000000000000
    8    -0.00000000000000     0.00000000000000     0.27790883291858     0.00000000000000
    9     0.00000000000000     0.00000000000000     0.00000000000000     0.27790883291858



  ## F beta (Symmetry 0) ##
  Irrep: 1 Size: 9 x 9

                 1                   2                   3                   4                   5

    1     0.31147728895005    -0.02336215342183     0.00000000000000     0.00000000000000    -0.00000000000000
    2    -0.02336215342183     0.08544392434049     0.00000000000000     0.00000000000000    -0.00000000000000
    3     0.00000000000000     0.00000000000000     1.56209540124390     0.00000000000000     0.00000000000000
    4     0.00000000000000     0.00000000000000     0.00000000000000     1.56209540124390    -0.00000000000000
    5    -0.00000000000000    -0.00000000000000     0.00000000000000    -0.00000000000000     1.56209540124390
    6    -0.05737607814969     0.01228926842738     0.00000000000000     0.00000000000000    -0.00000000000000
    7     0.00000000000000     0.00000000000000     0.21227804634428    -0.00000000000000     0.00000000000000
    8     0.00000000000000    -0.00000000000000    -0.00000000000000     0.21227804634428     0.00000000000000
    9    -0.00000000000000    -0.00000000000000     0.00000000000000     0.00000000000000     0.21227804634428

                 6                   7                   8                   9

    1    -0.05737607814969     0.00000000000000     0.00000000000000    -0.00000000000000
    2     0.01228926842738     0.00000000000000    -0.00000000000000    -0.00000000000000
    3     0.00000000000000     0.21227804634428    -0.00000000000000     0.00000000000000
    4     0.00000000000000    -0.00000000000000     0.21227804634428     0.00000000000000
    5    -0.00000000000000     0.00000000000000     0.00000000000000     0.21227804634428
    6     0.02894057066918    -0.00000000000000    -0.00000000000000    -0.00000000000000
    7    -0.00000000000000     0.32691537672351     0.00000000000000     0.00000000000000
    8    -0.00000000000000     0.00000000000000     0.32691537672351     0.00000000000000
    9    -0.00000000000000     0.00000000000000     0.00000000000000     0.32691537672351



    Occupation by irrep:
              A 
    DOCC [     0 ]
    SOCC [     1 ]

  ## C alpha (Symmetry 0) ##
  Irrep: 1 Size: 9 x 9

                 1                   2                   3                   4                   5

    1    -0.58027711815921    -0.12788334971001    -0.00000000000000    -0.00000000000000    -0.00000000000000
    2    -0.49174901359605    -0.68464496574405     0.00000000000000    -0.00000000000000     0.00000000000000
    3     0.00000000000000     0.00000000000000    -0.00252390031963    -0.01291073137682    -0.00813783485926
    4     0.00000000000000    -0.00000000000000     0.00143609507560     0.00801085189751    -0.01315466824038
    5    -0.00000000000000    -0.00000000000000     0.01519371487869    -0.00290184094950    -0.00010844811387
    6    -0.02843109453147     1.34089707889485     0.00000000000000     0.00000000000000    -0.00000000000000
    7    -0.00000000000000    -0.00000000000000     0.16432600301227     0.84059139206760     0.52983783281630
    8    -0.00000000000000     0.00000000000000    -0.09350122185235    -0.52157023112345     0.85647362381194
    9    -0.00000000000000     0.00000000000000    -0.98923179235897     0.18893294671733     0.00706083554392

                 6                   7                   8                   9

    1    -1.33970827545640    -0.00000000000000    -0.00000000000000    -0.00000000000000
    2     1.78669297524089     0.00000000000000     0.00000000000000     0.00000000000000
    3     0.00000000000000    -0.05899972944549    -0.00000000000000    -1.12953834409953
    4    -0.00000000000000     1.12953834409952    -0.00000000000000    -0.05899972944549
    5     0.00000000000000    -0.00000000000000    -1.13107817539980     0.00000000000000
    6    -0.69574172159783    -0.00000000000000    -0.00000000000000    -0.00000000000000
    7    -0.00000000000000     0.02686499637936     0.00000000000000     0.51432513012818
    8    -0.00000000000000    -0.51432513012817     0.00000000000000     0.02686499637936
    9     0.00000000000000     0.00000000000000     0.51502627846725    -0.00000000000000



  ## C beta (Symmetry 0) ##
  Irrep: 1 Size: 9 x 9

                 1                   2                   3                   4                   5

    1    -0.18983256083878    -0.21525010400309    -0.00000000000000    -0.00000000000000    -0.00000000000000
    2    -0.07504630245916    -1.16873821161206     0.00000000000000     0.00000000000000     0.00000000000000
    3     0.00000000000000    -0.00000000000000    -0.01231560859388     0.00699401694529    -0.04822795082860
    4     0.00000000000000    -0.00000000000000     0.00273611839029    -0.04956649302275    -0.00788683426822
    5    -0.00000000000000    -0.00000000000000     0.04865557697028     0.00455765571199    -0.01176385707557
    6    -0.86448856595532     1.08982658275356     0.00000000000000    -0.00000000000000     0.00000000000000
    7     0.00000000000000     0.00000000000000     0.25053044407501    -0.14227588980388     0.98107777994154
    8    -0.00000000000000    -0.00000000000000    -0.05565952751220     1.00830709368253     0.16043803897308
    9    -0.00000000000000     0.00000000000000    -0.98977677084867    -0.09271417654773     0.23930643091731

                 6                   7                   8                   9

    1    -1.43719342466163     0.00000000000000     0.00000000000000    -0.00000000000000
    2     1.59098920627123    -0.00000000000000     0.00000000000000     0.00000000000000
    3     0.00000000000000    -0.11455373353575    -0.00000000000000    -1.12424554110002
    4    -0.00000000000000    -1.12424554110001     0.00000000000000     0.11455373353575
    5    -0.00000000000000    -0.00000000000000    -1.13006663279218     0.00000000000000
    6    -0.58975196935078     0.00000000000000    -0.00000000000000    -0.00000000000000
    7    -0.00000000000000     0.04904160715174     0.00000000000000     0.48130083993745
    8    -0.00000000000000     0.48130083993744    -0.00000000000000    -0.04904160715174
    9     0.00000000000000     0.00000000000000     0.48379290792292    -0.00000000000000



  ## SCF alpha density (Symmetry 0) ##
  Irrep: 1 Size: 9 x 9

                 1                   2                   3                   4                   5

    1     0.33672153385916     0.28535070046715    -0.00000000000000    -0.00000000000000     0.00000000000000
    2     0.28535070046715     0.24181709237269    -0.00000000000000    -0.00000000000000     0.00000000000000
    3    -0.00000000000000    -0.00000000000000     0.00000000000000     0.00000000000000    -0.00000000000000
    4    -0.00000000000000    -0.00000000000000     0.00000000000000     0.00000000000000    -0.00000000000000
    5     0.00000000000000     0.00000000000000    -0.00000000000000    -0.00000000000000     0.00000000000000
    6     0.01649791360084     0.01398096269131    -0.00000000000000    -0.00000000000000     0.00000000000000
    7     0.00000000000000     0.00000000000000    -0.00000000000000    -0.00000000000000     0.00000000000000
    8     0.00000000000000     0.00000000000000    -0.00000000000000    -0.00000000000000     0.00000000000000
    9     0.00000000000000     0.00000000000000    -0.00000000000000    -0.00000000000000     0.00000000000000

                 6                   7                   8                   9

    1     0.01649791360084     0.00000000000000     0.00000000000000     0.00000000000000
    2     0.01398096269131     0.00000000000000     0.00000000000000     0.00000000000000
    3    -0.00000000000000    -0.00000000000000    -0.00000000000000    -0.00000000000000
    4    -0.00000000000000    -0.00000000000000    -0.00000000000000    -0.00000000000000
    5     0.00000000000000     0.00000000000000     0.00000000000000     0.00000000000000
    6     0.00080832713626     0.00000000000000     0.00000000000000     0.00000000000000
    7     0.00000000000000     0.00000000000000     0.00000000000000     0.00000000000000
    8     0.00000000000000     0.00000000000000     0.00000000000000     0.00000000000000
    9     0.00000000000000     0.00000000000000     0.00000000000000     0.00000000000000



  ## SCF beta density (Symmetry 0) ##
  Irrep: 1 Size: 9 x 9

                 1                   2                   3                   4                   5

    1     0.00000000000000     0.00000000000000     0.00000000000000     0.00000000000000     0.00000000000000
    2     0.00000000000000     0.00000000000000     0.00000000000000     0.00000000000000     0.00000000000000
    3     0.00000000000000     0.00000000000000     0.00000000000000     0.00000000000000     0.00000000000000
    4     0.00000000000000     0.00000000000000     0.00000000000000     0.00000000000000     0.00000000000000
    5     0.00000000000000     0.00000000000000     0.00000000000000     0.00000000000000     0.00000000000000
    6     0.00000000000000     0.00000000000000     0.00000000000000     0.00000000000000     0.00000000000000
    7     0.00000000000000     0.00000000000000     0.00000000000000     0.00000000000000     0.00000000000000
    8     0.00000000000000     0.00000000000000     0.00000000000000     0.00000000000000     0.00000000000000
    9     0.00000000000000     0.00000000000000     0.00000000000000     0.00000000000000     0.00000000000000

                 6                   7                   8                   9

    1     0.00000000000000     0.00000000000000     0.00000000000000     0.00000000000000
    2     0.00000000000000     0.00000000000000     0.00000000000000     0.00000000000000
    3     0.00000000000000     0.00000000000000     0.00000000000000     0.00000000000000
    4     0.00000000000000     0.00000000000000     0.00000000000000     0.00000000000000
    5     0.00000000000000     0.00000000000000     0.00000000000000     0.00000000000000
    6     0.00000000000000     0.00000000000000     0.00000000000000     0.00000000000000
    7     0.00000000000000     0.00000000000000     0.00000000000000     0.00000000000000
    8     0.00000000000000     0.00000000000000     0.00000000000000     0.00000000000000
    9     0.00000000000000     0.00000000000000     0.00000000000000     0.00000000000000



   @DF-UHF iter   1:    -0.49885158692121   -4.98852e-01   1.15233e-03 
  ## F alpha (Symmetry 0) ##
  Irrep: 1 Size: 9 x 9

                 1                   2                   3                   4                   5

    1    -0.35344833987265    -0.50958388366607     0.00000000000000    -0.00000000000000    -0.00000000000000
    2    -0.50958388366607    -0.30617740778936    -0.00000000000000    -0.00000000000000     0.00000000000000
    3     0.00000000000000    -0.00000000000000     1.43953072860052     0.00000000000000     0.00000000000000
    4    -0.00000000000000    -0.00000000000000     0.00000000000000     1.43953072860052    -0.00000000000000
    5    -0.00000000000000     0.00000000000000     0.00000000000000    -0.00000000000000     1.43953072860052
    6    -0.30131193261406    -0.19253830281471    -0.00000000000000    -0.00000000000000     0.00000000000000
    7    -0.00000000000000    -0.00000000000000     0.14948386372660     0.00000000000000     0.00000000000000
    8    -0.00000000000000    -0.00000000000000     0.00000000000000     0.14948386372660     0.00000000000000
    9    -0.00000000000000     0.00000000000000     0.00000000000000     0.00000000000000     0.14948386372660

                 6                   7                   8                   9

    1    -0.30131193261406    -0.00000000000000    -0.00000000000000    -0.00000000000000
    2    -0.19253830281471    -0.00000000000000    -0.00000000000000     0.00000000000000
    3    -0.00000000000000     0.14948386372660     0.00000000000000     0.00000000000000
    4    -0.00000000000000     0.00000000000000     0.14948386372660     0.00000000000000
    5     0.00000000000000     0.00000000000000     0.00000000000000     0.14948386372660
    6    -0.08085240701044    -0.00000000000000    -0.00000000000000     0.00000000000000
    7    -0.00000000000000     0.28025316548120     0.00000000000000     0.00000000000000
    8    -0.00000000000000     0.00000000000000     0.28025316548120     0.00000000000000
    9     0.00000000000000     0.00000000000000     0.00000000000000     0.28025316548120



  ## F beta (Symmetry 0) ##
  Irrep: 1 Size: 9 x 9

                 1                   2                   3                   4                   5

    1     0.31976486675741    -0.01929460343174     0.00000000000000     0.00000000000000    -0.00000000000000
    2    -0.01929460343174     0.08832656255987     0.00000000000000     0.00000000000000    -0.00000000000000
    3     0.00000000000000     0.00000000000000     1.56851684768265     0.00000000000000     0.00000000000000
    4     0.00000000000000     0.00000000000000     0.00000000000000     1.56851684768265    -0.00000000000000
    5    -0.00000000000000    -0.00000000000000     0.00000000000000    -0.00000000000000     1.56851684768265
    6    -0.05576581641618     0.01359925026055     0.00000000000000     0.00000000000000    -0.00000000000000
    7     0.00000000000000     0.00000000000000     0.21439193048568    -0.00000000000000     0.00000000000000
    8     0.00000000000000    -0.00000000000000    -0.00000000000000     0.21439193048568     0.00000000000000
    9    -0.00000000000000    -0.00000000000000     0.00000000000000     0.00000000000000     0.21439193048568

                 6                   7                   8                   9

    1    -0.05576581641618     0.00000000000000     0.00000000000000    -0.00000000000000
    2     0.01359925026055     0.00000000000000    -0.00000000000000    -0.00000000000000
    3     0.00000000000000     0.21439193048568    -0.00000000000000     0.00000000000000
    4     0.00000000000000    -0.00000000000000     0.21439193048568     0.00000000000000
    5    -0.00000000000000     0.00000000000000     0.00000000000000     0.21439193048568
    6     0.02959466666878    -0.00000000000000    -0.00000000000000    -0.00000000000000
    7    -0.00000000000000     0.32838254261084     0.00000000000000     0.00000000000000
    8    -0.00000000000000     0.00000000000000     0.32838254261084     0.00000000000000
    9    -0.00000000000000     0.00000000000000     0.00000000000000     0.32838254261084



DIIS coefficients:  -0.636  1.636 
  After DIIS:
  ## F alpha (Symmetry 0) ##
  Irrep: 1 Size: 9 x 9

                 1                   2                   3                   4                   5

    1    -0.35588635158575    -0.50963386540579    -0.00000000000000    -0.00000000000000    -0.00000000000000
    2    -0.50963386540579    -0.30354889702090    -0.00000000000000    -0.00000000000000     0.00000000000000
    3    -0.00000000000000    -0.00000000000000     1.44239727364498     0.00000000000000     0.00000000000000
    4    -0.00000000000000    -0.00000000000000     0.00000000000000     1.44239727364498    -0.00000000000000
    5    -0.00000000000000     0.00000000000000     0.00000000000000    -0.00000000000000     1.44239727364498
    6    -0.29973046325040    -0.18942070067161    -0.00000000000000    -0.00000000000000     0.00000000000000
    7    -0.00000000000000    -0.00000000000000     0.15071243452230     0.00000000000000     0.00000000000000
    8    -0.00000000000000    -0.00000000000000     0.00000000000000     0.15071243452230     0.00000000000000
    9    -0.00000000000000     0.00000000000000     0.00000000000000     0.00000000000000     0.15071243452230

                 6                   7                   8                   9

    1    -0.29973046325040    -0.00000000000000    -0.00000000000000    -0.00000000000000
    2    -0.18942070067161    -0.00000000000000    -0.00000000000000     0.00000000000000
    3    -0.00000000000000     0.15071243452230     0.00000000000000     0.00000000000000
    4    -0.00000000000000     0.00000000000000     0.15071243452230     0.00000000000000
    5     0.00000000000000     0.00000000000000     0.00000000000000     0.15071243452230
    6    -0.07802337497886    -0.00000000000000    -0.00000000000000     0.00000000000000
    7    -0.00000000000000     0.28174407557312     0.00000000000000     0.00000000000000
    8    -0.00000000000000     0.00000000000000     0.28174407557312     0.00000000000000
    9     0.00000000000000     0.00000000000000     0.00000000000000     0.28174407557312



  ## F beta (Symmetry 0) ##
  Irrep: 1 Size: 9 x 9

                 1                   2                   3                   4                   5

    1     0.32503546427743    -0.01670778984294     0.00000000000000     0.00000000000000    -0.00000000000000
    2    -0.01670778984294     0.09015981543585     0.00000000000000     0.00000000000000    -0.00000000000000
    3     0.00000000000000     0.00000000000000     1.57260065364642     0.00000000000000     0.00000000000000
    4     0.00000000000000     0.00000000000000     0.00000000000000     1.57260065364642    -0.00000000000000
    5    -0.00000000000000    -0.00000000000000     0.00000000000000    -0.00000000000000     1.57260065364642
    6    -0.05474174862502     0.01443235097606     0.00000000000000     0.00000000000000    -0.00000000000000
    7     0.00000000000000     0.00000000000000     0.21573628377832    -0.00000000000000     0.00000000000000
    8     0.00000000000000    -0.00000000000000    -0.00000000000000     0.21573628377832     0.00000000000000
    9    -0.00000000000000    -0.00000000000000     0.00000000000000     0.00000000000000     0.21573628377832

                 6                   7                   8                   9

    1    -0.05474174862502     0.00000000000000     0.00000000000000    -0.00000000000000
    2     0.01443235097606     0.00000000000000    -0.00000000000000    -0.00000000000000
    3     0.00000000000000     0.21573628377832    -0.00000000000000     0.00000000000000
    4     0.00000000000000    -0.00000000000000     0.21573628377832     0.00000000000000
    5    -0.00000000000000     0.00000000000000     0.00000000000000     0.21573628377832
    6     0.03001064789194    -0.00000000000000    -0.00000000000000    -0.00000000000000
    7    -0.00000000000000     0.32931560665766     0.00000000000000     0.00000000000000
    8    -0.00000000000000     0.00000000000000     0.32931560665766     0.00000000000000
    9    -0.00000000000000     0.00000000000000     0.00000000000000     0.32931560665766



    Occupation by irrep:
              A 
    DOCC [     0 ]
    SOCC [     1 ]

  ## C alpha (Symmetry 0) ##
  Irrep: 1 Size: 9 x 9

                 1                   2                   3                   4                   5

    1    -0.58896024658774    -0.12109629934910     0.00000000000000     0.00000000000000     0.00000000000000
    2    -0.49023290556858    -0.67858130740173    -0.00000000000000    -0.00000000000000    -0.00000000000000
    3    -0.00000000000000    -0.00000000000000     0.00337907450990     0.00491531438886     0.01552752237022
    4     0.00000000000000     0.00000000000000     0.00117969988579     0.01574266835007    -0.00524014431496
    5    -0.00000000000000    -0.00000000000000    -0.01624415509278     0.00216575361496     0.00284944690129
    6    -0.01622473780128     1.34107580210880     0.00000000000000     0.00000000000000    -0.00000000000000
    7    -0.00000000000000    -0.00000000000000    -0.20470292013734    -0.29776768930219    -0.94065080907999
    8    -0.00000000000000     0.00000000000000    -0.07146572554116    -0.95368426253089     0.31744575032870
    9     0.00000000000000    -0.00000000000000     0.98406411960202    -0.13120044792801    -0.17261830118319

                 6                   7                   8                   9

    1    -1.33654609443215     0.00000000000000    -0.00000000000000    -0.00000000000000
    2     1.78942077690220    -0.00000000000000     0.00000000000000     0.00000000000000
    3     0.00000000000000    -0.01694371550198    -0.00000000000000    -1.13093472330342
    4    -0.00000000000000    -1.13093472330342     0.00000000000000     0.01694371550198
    5     0.00000000000000    -0.00000000000000    -1.13106164194017     0.00000000000000
    6    -0.69578897474624     0.00000000000000    -0.00000000000000    -0.00000000000000
    7    -0.00000000000000     0.00769973668231     0.00000000000000     0.51393093641704
    8     0.00000000000000     0.51393093641704    -0.00000000000000    -0.00769973668231
    9     0.00000000000000     0.00000000000000     0.51398861208345    -0.00000000000000



  ## C beta (Symmetry 0) ##
  Irrep: 1 Size: 9 x 9

                 1                   2                   3                   4                   5

    1    -0.17927006094862    -0.20966438805785    -0.00000000000000     0.00000000000000     0.00000000000000
    2    -0.05095431141807    -1.18166056066621    -0.00000000000000    -0.00000000000000    -0.00000000000000
    3     0.00000000000000     0.00000000000000    -0.02811991172267    -0.00464099412601     0.04345545541719
    4    -0.00000000000000     0.00000000000000    -0.00097594923952     0.05172766855746     0.00489292305017
    5    -0.00000000000000    -0.00000000000000    -0.04369168061628     0.00183148748707    -0.02807717161314
    6    -0.88978198177496     1.07177706489547     0.00000000000000     0.00000000000000    -0.00000000000000
    7    -0.00000000000000    -0.00000000000000     0.55367613784608     0.09138036167396    -0.85563030784117
    8    -0.00000000000000    -0.00000000000000     0.01921626963140    -1.01850873605663    -0.09634079807622
    9     0.00000000000000    -0.00000000000000     0.86028154064671    -0.03606166791547     0.55283459257345

                 6                   7                   8                   9

    1    -1.43937383536952    -0.00000000000000     0.00000000000000     0.00000000000000
    2     1.58237466700540     0.00000000000000     0.00000000000000    -0.00000000000000
    3     0.00000000000000     0.10298464578878    -0.00000000000000     1.12528691369975
    4    -0.00000000000000     1.12528691369975     0.00000000000000    -0.10298464578878
    5    -0.00000000000000     0.00000000000000    -1.12998959084239    -0.00000000000000
    6    -0.58519380940811    -0.00000000000000    -0.00000000000000     0.00000000000000
    7    -0.00000000000000    -0.04395126622996     0.00000000000000    -0.48024425729003
    8    -0.00000000000000    -0.48024425729002    -0.00000000000000     0.04395126622996
    9     0.00000000000000    -0.00000000000000     0.48225124205466     0.00000000000000



  ## SCF alpha density (Symmetry 0) ##
  Irrep: 1 Size: 9 x 9

                 1                   2                   3                   4                   5

    1     0.34687417206070     0.28872769294910     0.00000000000000    -0.00000000000000     0.00000000000000
    2     0.28872769294910     0.24032830170221     0.00000000000000    -0.00000000000000     0.00000000000000
    3     0.00000000000000     0.00000000000000     0.00000000000000    -0.00000000000000     0.00000000000000
    4    -0.00000000000000    -0.00000000000000    -0.00000000000000     0.00000000000000    -0.00000000000000
    5     0.00000000000000     0.00000000000000     0.00000000000000    -0.00000000000000     0.00000000000000
    6     0.00955572557626     0.00795390035441     0.00000000000000    -0.00000000000000     0.00000000000000
    7     0.00000000000000     0.00000000000000     0.00000000000000    -0.00000000000000     0.00000000000000
    8     0.00000000000000     0.00000000000000     0.00000000000000    -0.00000000000000     0.00000000000000
    9    -0.00000000000000    -0.00000000000000    -0.00000000000000     0.00000000000000    -0.00000000000000

                 6                   7                   8                   9

    1     0.00955572557626     0.00000000000000     0.00000000000000    -0.00000000000000
    2     0.00795390035441     0.00000000000000     0.00000000000000    -0.00000000000000
    3     0.00000000000000     0.00000000000000     0.00000000000000    -0.00000000000000
    4    -0.00000000000000    -0.00000000000000    -0.00000000000000     0.00000000000000
    5     0.00000000000000     0.00000000000000     0.00000000000000    -0.00000000000000
    6     0.00026324211672     0.00000000000000     0.00000000000000    -0.00000000000000
    7     0.00000000000000     0.00000000000000     0.00000000000000    -0.00000000000000
    8     0.00000000000000     0.00000000000000     0.00000000000000    -0.00000000000000
    9    -0.00000000000000    -0.00000000000000    -0.00000000000000     0.00000000000000



  ## SCF beta density (Symmetry 0) ##
  Irrep: 1 Size: 9 x 9

                 1                   2                   3                   4                   5

    1     0.00000000000000     0.00000000000000     0.00000000000000     0.00000000000000     0.00000000000000
    2     0.00000000000000     0.00000000000000     0.00000000000000     0.00000000000000     0.00000000000000
    3     0.00000000000000     0.00000000000000     0.00000000000000     0.00000000000000     0.00000000000000
    4     0.00000000000000     0.00000000000000     0.00000000000000     0.00000000000000     0.00000000000000
    5     0.00000000000000     0.00000000000000     0.00000000000000     0.00000000000000     0.00000000000000
    6     0.00000000000000     0.00000000000000     0.00000000000000     0.00000000000000     0.00000000000000
    7     0.00000000000000     0.00000000000000     0.00000000000000     0.00000000000000     0.00000000000000
    8     0.00000000000000     0.00000000000000     0.00000000000000     0.00000000000000     0.00000000000000
    9     0.00000000000000     0.00000000000000     0.00000000000000     0.00000000000000     0.00000000000000

                 6                   7                   8                   9

    1     0.00000000000000     0.00000000000000     0.00000000000000     0.00000000000000
    2     0.00000000000000     0.00000000000000     0.00000000000000     0.00000000000000
    3     0.00000000000000     0.00000000000000     0.00000000000000     0.00000000000000
    4     0.00000000000000     0.00000000000000     0.00000000000000     0.00000000000000
    5     0.00000000000000     0.00000000000000     0.00000000000000     0.00000000000000
    6     0.00000000000000     0.00000000000000     0.00000000000000     0.00000000000000
    7     0.00000000000000     0.00000000000000     0.00000000000000     0.00000000000000
    8     0.00000000000000     0.00000000000000     0.00000000000000     0.00000000000000
    9     0.00000000000000     0.00000000000000     0.00000000000000     0.00000000000000



   @DF-UHF iter   2:    -0.49926396725904   -4.12380e-04   4.51721e-04 DIIS
  ## F alpha (Symmetry 0) ##
  Irrep: 1 Size: 9 x 9

                 1                   2                   3                   4                   5

    1    -0.35587482151996    -0.50949403225856    -0.00000000000000    -0.00000000000000    -0.00000000000000
    2    -0.50949403225856    -0.30340944483083    -0.00000000000000    -0.00000000000000     0.00000000000000
    3    -0.00000000000000    -0.00000000000000     1.44232549269480     0.00000000000000     0.00000000000000
    4    -0.00000000000000    -0.00000000000000     0.00000000000000     1.44232549269480    -0.00000000000000
    5    -0.00000000000000     0.00000000000000     0.00000000000000    -0.00000000000000     1.44232549269480
    6    -0.29972063558001    -0.18945650771800    -0.00000000000000    -0.00000000000000     0.00000000000000
    7    -0.00000000000000    -0.00000000000000     0.15069986274860     0.00000000000000     0.00000000000000
    8    -0.00000000000000    -0.00000000000000     0.00000000000000     0.15069986274860     0.00000000000000
    9    -0.00000000000000     0.00000000000000     0.00000000000000     0.00000000000000     0.15069986274860

                 6                   7                   8                   9

    1    -0.29972063558001    -0.00000000000000    -0.00000000000000    -0.00000000000000
    2    -0.18945650771800    -0.00000000000000    -0.00000000000000     0.00000000000000
    3    -0.00000000000000     0.15069986274860     0.00000000000000     0.00000000000000
    4    -0.00000000000000     0.00000000000000     0.15069986274860     0.00000000000000
    5     0.00000000000000     0.00000000000000     0.00000000000000     0.15069986274860
    6    -0.07815293092036    -0.00000000000000    -0.00000000000000     0.00000000000000
    7    -0.00000000000000     0.28169618453028     0.00000000000000     0.00000000000000
    8    -0.00000000000000     0.00000000000000     0.28169618453028     0.00000000000000
    9     0.00000000000000     0.00000000000000     0.00000000000000     0.28169618453028



  ## F beta (Symmetry 0) ##
  Irrep: 1 Size: 9 x 9

                 1                   2                   3                   4                   5

    1     0.32493968061121    -0.01678493632754     0.00000000000000     0.00000000000000    -0.00000000000000
    2    -0.01678493632754     0.09006191942462     0.00000000000000     0.00000000000000    -0.00000000000000
    3     0.00000000000000     0.00000000000000     1.57247618576633     0.00000000000000     0.00000000000000
    4     0.00000000000000     0.00000000000000     0.00000000000000     1.57247618576633    -0.00000000000000
    5    -0.00000000000000    -0.00000000000000     0.00000000000000    -0.00000000000000     1.57247618576633
    6    -0.05477593362529     0.01437815737123     0.00000000000000     0.00000000000000    -0.00000000000000
    7     0.00000000000000     0.00000000000000     0.21567686853013    -0.00000000000000     0.00000000000000
    8     0.00000000000000     0.00000000000000    -0.00000000000000     0.21567686853013     0.00000000000000
    9    -0.00000000000000    -0.00000000000000     0.00000000000000     0.00000000000000     0.21567686853013

                 6                   7                   8                   9

    1    -0.05477593362529     0.00000000000000     0.00000000000000    -0.00000000000000
    2     0.01437815737123     0.00000000000000     0.00000000000000    -0.00000000000000
    3     0.00000000000000     0.21567686853013    -0.00000000000000     0.00000000000000
    4     0.00000000000000    -0.00000000000000     0.21567686853013     0.00000000000000
    5    -0.00000000000000     0.00000000000000     0.00000000000000     0.21567686853013
    6     0.02997373061652    -0.00000000000000    -0.00000000000000    -0.00000000000000
    7    -0.00000000000000     0.32923597046561     0.00000000000000     0.00000000000000
    8    -0.00000000000000     0.00000000000000     0.32923597046561     0.00000000000000
    9    -0.00000000000000     0.00000000000000     0.00000000000000     0.32923597046561



DIIS coefficients:  0.238  -0.612  1.374 
  After DIIS:
  ## F alpha (Symmetry 0) ##
  Irrep: 1 Size: 9 x 9

                 1                   2                   3                   4                   5

    1    -0.35586924939874    -0.50944169763648    -0.00000000000000    -0.00000000000000    -0.00000000000000
    2    -0.50944169763648    -0.30335863584973    -0.00000000000000    -0.00000000000000     0.00000000000000
    3    -0.00000000000000    -0.00000000000000     1.44229716062239     0.00000000000000     0.00000000000000
    4    -0.00000000000000    -0.00000000000000     0.00000000000000     1.44229716062239    -0.00000000000000
    5    -0.00000000000000     0.00000000000000     0.00000000000000    -0.00000000000000     1.44229716062239
    6    -0.29971777588958    -0.18947151230716    -0.00000000000000    -0.00000000000000     0.00000000000000
    7    -0.00000000000000    -0.00000000000000     0.15069452548181     0.00000000000000     0.00000000000000
    8    -0.00000000000000    -0.00000000000000     0.00000000000000     0.15069452548181     0.00000000000000
    9    -0.00000000000000     0.00000000000000     0.00000000000000     0.00000000000000     0.15069452548181

                 6                   7                   8                   9

    1    -0.29971777588958    -0.00000000000000    -0.00000000000000    -0.00000000000000
    2    -0.18947151230716    -0.00000000000000    -0.00000000000000     0.00000000000000
    3    -0.00000000000000     0.15069452548181     0.00000000000000     0.00000000000000
    4    -0.00000000000000     0.00000000000000     0.15069452548181     0.00000000000000
    5     0.00000000000000     0.00000000000000     0.00000000000000     0.15069452548181
    6    -0.07820285610218    -0.00000000000000    -0.00000000000000     0.00000000000000
    7    -0.00000000000000     0.28167749955608     0.00000000000000     0.00000000000000
    8    -0.00000000000000     0.00000000000000     0.28167749955608     0.00000000000000
    9     0.00000000000000     0.00000000000000     0.00000000000000     0.28167749955608



  ## F beta (Symmetry 0) ##
  Irrep: 1 Size: 9 x 9

                 1                   2                   3                   4                   5

    1     0.32490112818206    -0.01681513109112     0.00000000000000     0.00000000000000    -0.00000000000000
    2    -0.01681513109112     0.09002435180108     0.00000000000000     0.00000000000000    -0.00000000000000
    3     0.00000000000000     0.00000000000000     1.57242751598155     0.00000000000000     0.00000000000000
    4     0.00000000000000     0.00000000000000     0.00000000000000     1.57242751598155    -0.00000000000000
    5    -0.00000000000000    -0.00000000000000     0.00000000000000    -0.00000000000000     1.57242751598155
    6    -0.05478925037008     0.01435745441604     0.00000000000000     0.00000000000000    -0.00000000000000
    7     0.00000000000000     0.00000000000000     0.21565394825852    -0.00000000000000     0.00000000000000
    8     0.00000000000000     0.00000000000000    -0.00000000000000     0.21565394825852     0.00000000000000
    9    -0.00000000000000    -0.00000000000000     0.00000000000000     0.00000000000000     0.21565394825852

                 6                   7                   8                   9

    1    -0.05478925037008     0.00000000000000     0.00000000000000    -0.00000000000000
    2     0.01435745441604     0.00000000000000     0.00000000000000    -0.00000000000000
    3     0.00000000000000     0.21565394825852    -0.00000000000000     0.00000000000000
    4     0.00000000000000    -0.00000000000000     0.21565394825852     0.00000000000000
    5    -0.00000000000000     0.00000000000000     0.00000000000000     0.21565394825852
    6     0.02995970578826    -0.00000000000000    -0.00000000000000    -0.00000000000000
    7    -0.00000000000000     0.32920569832266     0.00000000000000     0.00000000000000
    8    -0.00000000000000     0.00000000000000     0.32920569832266     0.00000000000000
    9    -0.00000000000000     0.00000000000000     0.00000000000000     0.32920569832266



    Occupation by irrep:
              A 
    DOCC [     0 ]
    SOCC [     1 ]

  ## C alpha (Symmetry 0) ##
  Irrep: 1 Size: 9 x 9

                 1                   2                   3                   4                   5

    1     0.58919100845247     0.12148318847542     0.00000000000000     0.00000000000000     0.00000000000000
    2     0.48966019724653     0.67846428322606     0.00000000000000    -0.00000000000000    -0.00000000000000
    3    -0.00000000000000     0.00000000000000     0.00599291617601     0.01542964782810     0.00176064580383
    4    -0.00000000000000     0.00000000000000    -0.00008820181520     0.00192098059569    -0.01653453972837
    5    -0.00000000000000     0.00000000000000     0.01552952433868    -0.00594346292074    -0.00077335138370
    6     0.01678525392507    -1.34096536877321    -0.00000000000000    -0.00000000000000    -0.00000000000000
    7     0.00000000000000     0.00000000000000    -0.36278392712301    -0.93404080230779    -0.10658150059639
    8     0.00000000000000     0.00000000000000     0.00533933730386    -0.11628744069910     1.00092593983609
    9     0.00000000000000    -0.00000000000000    -0.94008687264652     0.35979025165202     0.04681518042060

                 6                   7                   8                   9

    1     1.33640927069337    -0.00000000000000    -0.00000000000000     0.00000000000000
    2    -1.78962194803415     0.00000000000000     0.00000000000000    -0.00000000000000
    3    -0.00000000000000    -0.02686910372307    -0.00000000000000     1.13074227063223
    4     0.00000000000000     1.13074227063222     0.00000000000000     0.02686910372307
    5    -0.00000000000000    -0.00000000000000    -1.13106146222449    -0.00000000000000
    6     0.69598849236069    -0.00000000000000    -0.00000000000000     0.00000000000000
    7     0.00000000000000     0.01220987662626     0.00000000000000    -0.51383268168564
    8    -0.00000000000000    -0.51383268168564    -0.00000000000000    -0.01220987662626
    9    -0.00000000000000    -0.00000000000000     0.51397772894892     0.00000000000000



  ## C beta (Symmetry 0) ##
  Irrep: 1 Size: 9 x 9

                 1                   2                   3                   4                   5

    1    -0.17935026312935    -0.20960922811114    -0.00000000000000     0.00000000000000    -0.00000000000000
    2    -0.05151727646481    -1.18160667858381    -0.00000000000000     0.00000000000000    -0.00000000000000
    3     0.00000000000000     0.00000000000000     0.00309334527831     0.03852041281768    -0.03470908981615
    4    -0.00000000000000     0.00000000000000     0.05184947976519    -0.00257816312381     0.00175966687393
    5    -0.00000000000000    -0.00000000000000    -0.00041781286405    -0.03475115502805    -0.03860433345038
    6    -0.88928098682939     1.07217604876208     0.00000000000000    -0.00000000000000     0.00000000000000
    7     0.00000000000000    -0.00000000000000    -0.06093539027969    -0.75880840242508     0.68372966607810
    8     0.00000000000000     0.00000000000000    -1.02137588954232     0.05078688669378    -0.03466343976446
    9    -0.00000000000000     0.00000000000000     0.00823043910210     0.68455830299819     0.76046154361883

                 6                   7                   8                   9

    1    -1.43937187791226    -0.00000000000000     0.00000000000000     0.00000000000000
    2     1.58239667486326     0.00000000000000     0.00000000000000    -0.00000000000000
    3     0.00000000000000     0.01223000788580    -0.00000000000000     1.12992452636538
    4    -0.00000000000000     1.12992452636538     0.00000000000000    -0.01223000788580
    5    -0.00000000000000     0.00000000000000    -1.12999071163214    -0.00000000000000
    6    -0.58522448122203    -0.00000000000000    -0.00000000000000     0.00000000000000
    7    -0.00000000000000    -0.00521969462951     0.00000000000000    -0.48224506779510
    8     0.00000000000000    -0.48224506779510    -0.00000000000000     0.00521969462951
    9     0.00000000000000    -0.00000000000000     0.48227331527332     0.00000000000000



  ## SCF alpha density (Symmetry 0) ##
  Irrep: 1 Size: 9 x 9

                 1                   2                   3                   4                   5

    1     0.34714604444124     0.28850338541472    -0.00000000000000    -0.00000000000000    -0.00000000000000
    2     0.28850338541472     0.23976710876751    -0.00000000000000    -0.00000000000000    -0.00000000000000
    3    -0.00000000000000    -0.00000000000000     0.00000000000000     0.00000000000000     0.00000000000000
    4    -0.00000000000000    -0.00000000000000     0.00000000000000     0.00000000000000     0.00000000000000
    5    -0.00000000000000    -0.00000000000000     0.00000000000000     0.00000000000000     0.00000000000000
    6     0.00988972068724     0.00821907074778    -0.00000000000000    -0.00000000000000    -0.00000000000000
    7     0.00000000000000     0.00000000000000    -0.00000000000000    -0.00000000000000    -0.00000000000000
    8     0.00000000000000     0.00000000000000    -0.00000000000000    -0.00000000000000    -0.00000000000000
    9     0.00000000000000     0.00000000000000    -0.00000000000000    -0.00000000000000    -0.00000000000000

                 6                   7                   8                   9

    1     0.00988972068724     0.00000000000000     0.00000000000000     0.00000000000000
    2     0.00821907074778     0.00000000000000     0.00000000000000     0.00000000000000
    3    -0.00000000000000    -0.00000000000000    -0.00000000000000    -0.00000000000000
    4    -0.00000000000000    -0.00000000000000    -0.00000000000000    -0.00000000000000
    5    -0.00000000000000    -0.00000000000000    -0.00000000000000    -0.00000000000000
    6     0.00028174474933     0.00000000000000     0.00000000000000     0.00000000000000
    7     0.00000000000000     0.00000000000000     0.00000000000000     0.00000000000000
    8     0.00000000000000     0.00000000000000     0.00000000000000     0.00000000000000
    9     0.00000000000000     0.00000000000000     0.00000000000000     0.00000000000000



  ## SCF beta density (Symmetry 0) ##
  Irrep: 1 Size: 9 x 9

                 1                   2                   3                   4                   5

    1     0.00000000000000     0.00000000000000     0.00000000000000     0.00000000000000     0.00000000000000
    2     0.00000000000000     0.00000000000000     0.00000000000000     0.00000000000000     0.00000000000000
    3     0.00000000000000     0.00000000000000     0.00000000000000     0.00000000000000     0.00000000000000
    4     0.00000000000000     0.00000000000000     0.00000000000000     0.00000000000000     0.00000000000000
    5     0.00000000000000     0.00000000000000     0.00000000000000     0.00000000000000     0.00000000000000
    6     0.00000000000000     0.00000000000000     0.00000000000000     0.00000000000000     0.00000000000000
    7     0.00000000000000     0.00000000000000     0.00000000000000     0.00000000000000     0.00000000000000
    8     0.00000000000000     0.00000000000000     0.00000000000000     0.00000000000000     0.00000000000000
    9     0.00000000000000     0.00000000000000     0.00000000000000     0.00000000000000     0.00000000000000

                 6                   7                   8                   9

    1     0.00000000000000     0.00000000000000     0.00000000000000     0.00000000000000
    2     0.00000000000000     0.00000000000000     0.00000000000000     0.00000000000000
    3     0.00000000000000     0.00000000000000     0.00000000000000     0.00000000000000
    4     0.00000000000000     0.00000000000000     0.00000000000000     0.00000000000000
    5     0.00000000000000     0.00000000000000     0.00000000000000     0.00000000000000
    6     0.00000000000000     0.00000000000000     0.00000000000000     0.00000000000000
    7     0.00000000000000     0.00000000000000     0.00000000000000     0.00000000000000
    8     0.00000000000000     0.00000000000000     0.00000000000000     0.00000000000000
    9     0.00000000000000     0.00000000000000     0.00000000000000     0.00000000000000



   @DF-UHF iter   3:    -0.49933423947631   -7.02722e-05   1.72621e-05 DIIS
  ## F alpha (Symmetry 0) ##
  Irrep: 1 Size: 9 x 9

                 1                   2                   3                   4                   5

    1    -0.35589918878931    -0.50948755395933     0.00000000000000     0.00000000000000    -0.00000000000000
    2    -0.50948755395933    -0.30338566347126     0.00000000000000    -0.00000000000000     0.00000000000000
    3     0.00000000000000     0.00000000000000     1.44234011748708     0.00000000000000     0.00000000000000
    4     0.00000000000000    -0.00000000000000     0.00000000000000     1.44234011748708    -0.00000000000000
    5    -0.00000000000000     0.00000000000000     0.00000000000000    -0.00000000000000     1.44234011748708
    6    -0.29975205008542    -0.18947948898815     0.00000000000000    -0.00000000000000     0.00000000000000
    7     0.00000000000000    -0.00000000000000     0.15070715691292     0.00000000000000     0.00000000000000
    8    -0.00000000000000    -0.00000000000000     0.00000000000000     0.15070715691292     0.00000000000000
    9    -0.00000000000000     0.00000000000000     0.00000000000000     0.00000000000000     0.15070715691292

                 6                   7                   8                   9

    1    -0.29975205008542     0.00000000000000    -0.00000000000000    -0.00000000000000
    2    -0.18947948898815    -0.00000000000000    -0.00000000000000     0.00000000000000
    3     0.00000000000000     0.15070715691292     0.00000000000000     0.00000000000000
    4    -0.00000000000000     0.00000000000000     0.15070715691292     0.00000000000000
    5     0.00000000000000     0.00000000000000     0.00000000000000     0.15070715691292
    6    -0.07818927371818    -0.00000000000000    -0.00000000000000     0.00000000000000
    7    -0.00000000000000     0.28169724930508     0.00000000000000     0.00000000000000
    8    -0.00000000000000     0.00000000000000     0.28169724930508     0.00000000000000
    9     0.00000000000000     0.00000000000000     0.00000000000000     0.28169724930508



  ## F beta (Symmetry 0) ##
  Irrep: 1 Size: 9 x 9

                 1                   2                   3                   4                   5

    1     0.32497284594101    -0.01677496310533     0.00000000000000     0.00000000000000    -0.00000000000000
    2    -0.01677496310533     0.09006069695634     0.00000000000000     0.00000000000000    -0.00000000000000
    3     0.00000000000000     0.00000000000000     1.57249083269209     0.00000000000000     0.00000000000000
    4     0.00000000000000     0.00000000000000     0.00000000000000     1.57249083269209    -0.00000000000000
    5    -0.00000000000000    -0.00000000000000     0.00000000000000    -0.00000000000000     1.57249083269209
    6    -0.05477270942465     0.01437599315471     0.00000000000000     0.00000000000000    -0.00000000000000
    7     0.00000000000000    -0.00000000000000     0.21567796620316    -0.00000000000000     0.00000000000000
    8     0.00000000000000    -0.00000000000000    -0.00000000000000     0.21567796620316     0.00000000000000
    9    -0.00000000000000    -0.00000000000000     0.00000000000000     0.00000000000000     0.21567796620316

                 6                   7                   8                   9

    1    -0.05477270942465     0.00000000000000     0.00000000000000    -0.00000000000000
    2     0.01437599315471    -0.00000000000000    -0.00000000000000    -0.00000000000000
    3     0.00000000000000     0.21567796620316    -0.00000000000000     0.00000000000000
    4     0.00000000000000    -0.00000000000000     0.21567796620316     0.00000000000000
    5    -0.00000000000000     0.00000000000000     0.00000000000000     0.21567796620316
    6     0.02997141890906    -0.00000000000000    -0.00000000000000    -0.00000000000000
    7    -0.00000000000000     0.32922997168800     0.00000000000000     0.00000000000000
    8    -0.00000000000000     0.00000000000000     0.32922997168800     0.00000000000000
    9    -0.00000000000000     0.00000000000000     0.00000000000000     0.32922997168800



DIIS coefficients:  -0.000  0.000  0.005  0.995 
  After DIIS:
  ## F alpha (Symmetry 0) ##
  Irrep: 1 Size: 9 x 9

                 1                   2                   3                   4                   5

    1    -0.35589884405257    -0.50948760172071     0.00000000000000     0.00000000000000    -0.00000000000000
    2    -0.50948760172071    -0.30338604071118     0.00000000000000    -0.00000000000000     0.00000000000000
    3     0.00000000000000     0.00000000000000     1.44233979465531     0.00000000000000     0.00000000000000
    4     0.00000000000000    -0.00000000000000     0.00000000000000     1.44233979465531    -0.00000000000000
    5    -0.00000000000000     0.00000000000000     0.00000000000000    -0.00000000000000     1.44233979465531
    6    -0.29975202252904    -0.18947963673641     0.00000000000000    -0.00000000000000     0.00000000000000
    7     0.00000000000000    -0.00000000000000     0.15070701077878     0.00000000000000     0.00000000000000
    8    -0.00000000000000    -0.00000000000000     0.00000000000000     0.15070701077878     0.00000000000000
    9    -0.00000000000000     0.00000000000000     0.00000000000000     0.00000000000000     0.15070701077878

                 6                   7                   8                   9

    1    -0.29975202252904     0.00000000000000    -0.00000000000000    -0.00000000000000
    2    -0.18947963673641    -0.00000000000000    -0.00000000000000     0.00000000000000
    3     0.00000000000000     0.15070701077878     0.00000000000000     0.00000000000000
    4    -0.00000000000000     0.00000000000000     0.15070701077878     0.00000000000000
    5     0.00000000000000     0.00000000000000     0.00000000000000     0.15070701077878
    6    -0.07818931260178    -0.00000000000000    -0.00000000000000     0.00000000000000
    7    -0.00000000000000     0.28169711780871     0.00000000000000     0.00000000000000
    8    -0.00000000000000     0.00000000000000     0.28169711780871     0.00000000000000
    9     0.00000000000000     0.00000000000000     0.00000000000000     0.28169711780871



  ## F beta (Symmetry 0) ##
  Irrep: 1 Size: 9 x 9

                 1                   2                   3                   4                   5

    1     0.32497221418719    -0.01677523559373     0.00000000000000     0.00000000000000    -0.00000000000000
    2    -0.01677523559373     0.09006055370859     0.00000000000000     0.00000000000000    -0.00000000000000
    3     0.00000000000000     0.00000000000000     1.57249040873742     0.00000000000000     0.00000000000000
    4     0.00000000000000     0.00000000000000     0.00000000000000     1.57249040873742    -0.00000000000000
    5    -0.00000000000000    -0.00000000000000     0.00000000000000    -0.00000000000000     1.57249040873742
    6    -0.05477281295914     0.01437593789711     0.00000000000000     0.00000000000000    -0.00000000000000
    7     0.00000000000000    -0.00000000000000     0.21567784891737    -0.00000000000000     0.00000000000000
    8     0.00000000000000    -0.00000000000000    -0.00000000000000     0.21567784891737     0.00000000000000
    9    -0.00000000000000    -0.00000000000000     0.00000000000000     0.00000000000000     0.21567784891737

                 6                   7                   8                   9

    1    -0.05477281295914     0.00000000000000     0.00000000000000    -0.00000000000000
    2     0.01437593789711    -0.00000000000000    -0.00000000000000    -0.00000000000000
    3     0.00000000000000     0.21567784891737    -0.00000000000000     0.00000000000000
    4     0.00000000000000    -0.00000000000000     0.21567784891737     0.00000000000000
    5    -0.00000000000000     0.00000000000000     0.00000000000000     0.21567784891737
    6     0.02997139915081    -0.00000000000000    -0.00000000000000    -0.00000000000000
    7    -0.00000000000000     0.32922993133871     0.00000000000000     0.00000000000000
    8    -0.00000000000000     0.00000000000000     0.32922993133871     0.00000000000000
    9    -0.00000000000000     0.00000000000000     0.00000000000000     0.32922993133871



    Occupation by irrep:
              A 
    DOCC [     0 ]
    SOCC [     1 ]

  ## C alpha (Symmetry 0) ##
  Irrep: 1 Size: 9 x 9

                 1                   2                   3                   4                   5

    1    -0.58918898526267    -0.12144200601735     0.00000000000000     0.00000000000000    -0.00000000000000
    2    -0.48966346221220    -0.67851858663919    -0.00000000000000    -0.00000000000000     0.00000000000000
    3    -0.00000000000000    -0.00000000000000     0.01440124147140    -0.00677601939239    -0.00488524187074
    4     0.00000000000000     0.00000000000000    -0.00409858859946     0.00275226654775    -0.01589976047624
    5     0.00000000000000    -0.00000000000000    -0.00727884595483    -0.01495614833115    -0.00071260895435
    6    -0.01678327263546     1.34098662390158    -0.00000000000000     0.00000000000000    -0.00000000000000
    7    -0.00000000000000    -0.00000000000000    -0.87165021142103     0.41012566504802     0.29568437679010
    8     0.00000000000000     0.00000000000000     0.24807136428755    -0.16658381313841     0.96234964243769
    9    -0.00000000000000     0.00000000000000     0.44055976896370     0.90523652983535     0.04313140273007

                 6                   7                   8                   9

    1     1.33641390562138     0.00000000000000    -0.00000000000000     0.00000000000000
    2    -1.78960046675955    -0.00000000000000     0.00000000000000    -0.00000000000000
    3    -0.00000000000000     0.00000000000001     0.01175681896251     1.13100031905586
    4     0.00000000000000    -1.13106142383894     0.00000000000000     0.00000000000001
    5    -0.00000000000000    -0.00000000000000    -1.13100031905586     0.01175681896251
    6     0.69594758622585     0.00000000000000    -0.00000000000000     0.00000000000000
    7     0.00000000000000    -0.00000000000000    -0.00534251780285    -0.51394763828994
    8     0.00000000000000     0.51397540544299    -0.00000000000000    -0.00000000000000
    9    -0.00000000000000     0.00000000000000     0.51394763828994    -0.00534251780285



  ## C beta (Symmetry 0) ##
  Irrep: 1 Size: 9 x 9

                 1                   2                   3                   4                   5

    1    -0.17930043367608    -0.20959259899304     0.00000000000000    -0.00000000000000    -0.00000000000000
    2    -0.05135556789810    -1.18166307026542    -0.00000000000000    -0.00000000000000     0.00000000000000
    3     0.00000000000000     0.00000000000000     0.04626575963129    -0.02099891744999    -0.01084465956695
    4     0.00000000000000     0.00000000000000     0.02258292869822     0.04630940415961     0.00667323813811
    5    -0.00000000000000    -0.00000000000000     0.00696939786533    -0.01065674630296     0.05036807462157
    6    -0.88943816319274     1.07205763640952     0.00000000000000     0.00000000000000    -0.00000000000000
    7    -0.00000000000000    -0.00000000000000    -0.91122274397813     0.41358212492000     0.21358993188174
    8    -0.00000000000000     0.00000000000000    -0.44477986354170    -0.91208234051708    -0.13143210909945
    9     0.00000000000000    -0.00000000000000    -0.13726509404220     0.20988890456897    -0.99201948765840

                 6                   7                   8                   9

    1    -1.43938050745780     0.00000000000000     0.00000000000000     0.00000000000000
    2     1.58235982105313    -0.00000000000000     0.00000000000000     0.00000000000000
    3     0.00000000000000     0.08268755146800    -0.00000000000000    -1.12696087217889
    4    -0.00000000000000    -1.12696087217889     0.00000000000000    -0.08268755146800
    5    -0.00000000000000    -0.00000000000000    -1.12999028252016     0.00000000000000
    6    -0.58520255003654     0.00000000000000    -0.00000000000000    -0.00000000000000
    7    -0.00000000000000    -0.03528995009706     0.00000000000000     0.48097195084950
    8     0.00000000000000     0.48097195084950    -0.00000000000000     0.03528995009706
    9     0.00000000000000     0.00000000000000     0.48226486299732    -0.00000000000000



  ## SCF alpha density (Symmetry 0) ##
  Irrep: 1 Size: 9 x 9

                 1                   2                   3                   4                   5

    1     0.34714366035486     0.28850431842102     0.00000000000000    -0.00000000000000    -0.00000000000000
    2     0.28850431842102     0.23977030622564     0.00000000000000    -0.00000000000000    -0.00000000000000
    3     0.00000000000000     0.00000000000000     0.00000000000000    -0.00000000000000    -0.00000000000000
    4    -0.00000000000000    -0.00000000000000    -0.00000000000000     0.00000000000000     0.00000000000000
    5    -0.00000000000000    -0.00000000000000    -0.00000000000000     0.00000000000000     0.00000000000000
    6     0.00988851937347     0.00821815538593     0.00000000000000    -0.00000000000000    -0.00000000000000
    7     0.00000000000000     0.00000000000000     0.00000000000000    -0.00000000000000    -0.00000000000000
    8    -0.00000000000000    -0.00000000000000    -0.00000000000000     0.00000000000000     0.00000000000000
    9     0.00000000000000     0.00000000000000     0.00000000000000    -0.00000000000000    -0.00000000000000

                 6                   7                   8                   9

    1     0.00988851937347     0.00000000000000    -0.00000000000000     0.00000000000000
    2     0.00821815538593     0.00000000000000    -0.00000000000000     0.00000000000000
    3     0.00000000000000     0.00000000000000    -0.00000000000000     0.00000000000000
    4    -0.00000000000000    -0.00000000000000     0.00000000000000    -0.00000000000000
    5    -0.00000000000000    -0.00000000000000     0.00000000000000    -0.00000000000000
    6     0.00028167824036     0.00000000000000    -0.00000000000000     0.00000000000000
    7     0.00000000000000     0.00000000000000    -0.00000000000000     0.00000000000000
    8    -0.00000000000000    -0.00000000000000     0.00000000000000    -0.00000000000000
    9     0.00000000000000     0.00000000000000    -0.00000000000000     0.00000000000000



  ## SCF beta density (Symmetry 0) ##
  Irrep: 1 Size: 9 x 9

                 1                   2                   3                   4                   5

    1     0.00000000000000     0.00000000000000     0.00000000000000     0.00000000000000     0.00000000000000
    2     0.00000000000000     0.00000000000000     0.00000000000000     0.00000000000000     0.00000000000000
    3     0.00000000000000     0.00000000000000     0.00000000000000     0.00000000000000     0.00000000000000
    4     0.00000000000000     0.00000000000000     0.00000000000000     0.00000000000000     0.00000000000000
    5     0.00000000000000     0.00000000000000     0.00000000000000     0.00000000000000     0.00000000000000
    6     0.00000000000000     0.00000000000000     0.00000000000000     0.00000000000000     0.00000000000000
    7     0.00000000000000     0.00000000000000     0.00000000000000     0.00000000000000     0.00000000000000
    8     0.00000000000000     0.00000000000000     0.00000000000000     0.00000000000000     0.00000000000000
    9     0.00000000000000     0.00000000000000     0.00000000000000     0.00000000000000     0.00000000000000

                 6                   7                   8                   9

    1     0.00000000000000     0.00000000000000     0.00000000000000     0.00000000000000
    2     0.00000000000000     0.00000000000000     0.00000000000000     0.00000000000000
    3     0.00000000000000     0.00000000000000     0.00000000000000     0.00000000000000
    4     0.00000000000000     0.00000000000000     0.00000000000000     0.00000000000000
    5     0.00000000000000     0.00000000000000     0.00000000000000     0.00000000000000
    6     0.00000000000000     0.00000000000000     0.00000000000000     0.00000000000000
    7     0.00000000000000     0.00000000000000     0.00000000000000     0.00000000000000
    8     0.00000000000000     0.00000000000000     0.00000000000000     0.00000000000000
    9     0.00000000000000     0.00000000000000     0.00000000000000     0.00000000000000



   @DF-UHF iter   4:    -0.49933431543730   -7.59610e-08   1.06204e-07 DIIS

  ==> Post-Iterations <==

   @Spin Contamination Metric:   0.000000000E+00
   @S^2 Expected:                7.500000000E-01
   @S^2 Observed:                7.500000000E-01
   @S   Expected:                5.000000000E-01
   @S   Observed:                5.000000000E-01

    Orbital Energies (a.u.)
    -----------------------

    Alpha Occupied:                                                       

       1A     -0.499334  

    Alpha Virtual:                                                        

       2A      0.072948     3A      0.281380     4A      0.281380  
       5A      0.281380     6A      0.706276     7A      1.744378  
       8A      1.744378     9A      1.744378  

    Beta Occupied:                                                        

    

    Beta Virtual:                                                         

       1A      0.017930     2A      0.154358     3A      0.326017  
       4A      0.326017     5A      0.326017     6A      0.866563  
       7A      1.849381     8A      1.849381     9A      1.849381  

    Final Occupation by Irrep:
              A 
    DOCC [     0 ]
    SOCC [     1 ]

  Energy converged.

  @DF-UHF Final Energy:    -0.49933431543730

   => Energetics <=

    Nuclear Repulsion Energy =              0.0000000000000000
    One-Electron Energy =                  -0.4993343154373046
    Two-Electron Energy =                  -0.0000000000000001
    DFT Exchange-Correlation Energy =       0.0000000000000000
    Empirical Dispersion Energy =           0.0000000000000000
    PCM Polarization Energy =               0.0000000000000000
    EFP Energy =                            0.0000000000000000
    Total Energy =                         -0.4993343154373046


  Saving occupied orbitals to File 180.

  UHF NO Occupations:
  HONO-0 :    1  A 1.0000000
  LUNO+0 :    2  A 0.0000000
  LUNO+1 :    3  A 0.0000000
  LUNO+2 :    4  A 0.0000000
  LUNO+3 :    5  A 0.0000000


*** tstop() called on dhcp-10-24-7-95.wlan.ntnu.no at Thu Aug 30 13:35:49 2018
Module time:
	user time   =       0.09 seconds =       0.00 minutes
	system time =       0.04 seconds =       0.00 minutes
	total time  =          0 seconds =       0.00 minutes
Total time:
	user time   =       0.09 seconds =       0.00 minutes
	system time =       0.04 seconds =       0.00 minutes
	total time  =          0 seconds =       0.00 minutes


Properties will be evaluated at   0.000000,   0.000000,   0.000000 Bohr

Properties computed using the SCF density matrix

  ## SO Dipole x (Symmetry 0) ##
  Irrep: 1 Size: 9 x 9

                 1                   2                   3                   4                   5

    1     0.00000000000000     0.00000000000000     0.00000000000000    -0.62912487452476     0.00000000000000
    2     0.00000000000000     0.00000000000000     0.00000000000000    -0.59015168908638     0.00000000000000
    3     0.00000000000000     0.00000000000000     0.00000000000000     0.00000000000000     0.00000000000000
    4    -0.62912487452476    -0.59015168908638     0.00000000000000     0.00000000000000     0.00000000000000
    5     0.00000000000000     0.00000000000000     0.00000000000000     0.00000000000000     0.00000000000000
    6     0.00000000000000     0.00000000000000     0.00000000000000    -0.27296188184013     0.00000000000000
    7     0.00000000000000     0.00000000000000     0.00000000000000     0.00000000000000     0.00000000000000
    8    -0.42749207614263    -1.42216303457544     0.00000000000000     0.00000000000000     0.00000000000000
    9     0.00000000000000     0.00000000000000     0.00000000000000     0.00000000000000     0.00000000000000

                 6                   7                   8                   9

    1     0.00000000000000     0.00000000000000    -0.42749207614263     0.00000000000000
    2     0.00000000000000     0.00000000000000    -1.42216303457544     0.00000000000000
    3     0.00000000000000     0.00000000000000     0.00000000000000     0.00000000000000
    4    -0.27296188184013     0.00000000000000     0.00000000000000     0.00000000000000
    5     0.00000000000000     0.00000000000000     0.00000000000000     0.00000000000000
    6     0.00000000000000     0.00000000000000    -1.45290231160518     0.00000000000000
    7     0.00000000000000     0.00000000000000     0.00000000000000     0.00000000000000
    8    -1.45290231160518     0.00000000000000     0.00000000000000     0.00000000000000
    9     0.00000000000000     0.00000000000000     0.00000000000000     0.00000000000000



  ## SO Dipole y (Symmetry 0) ##
  Irrep: 1 Size: 9 x 9

                 1                   2                   3                   4                   5

    1     0.00000000000000     0.00000000000000     0.00000000000000     0.00000000000000    -0.62912487452476
    2     0.00000000000000     0.00000000000000     0.00000000000000     0.00000000000000    -0.59015168908638
    3     0.00000000000000     0.00000000000000     0.00000000000000     0.00000000000000     0.00000000000000
    4     0.00000000000000     0.00000000000000     0.00000000000000     0.00000000000000     0.00000000000000
    5    -0.62912487452476    -0.59015168908638     0.00000000000000     0.00000000000000     0.00000000000000
    6     0.00000000000000     0.00000000000000     0.00000000000000     0.00000000000000    -0.27296188184013
    7     0.00000000000000     0.00000000000000     0.00000000000000     0.00000000000000     0.00000000000000
    8     0.00000000000000     0.00000000000000     0.00000000000000     0.00000000000000     0.00000000000000
    9    -0.42749207614263    -1.42216303457544     0.00000000000000     0.00000000000000     0.00000000000000

                 6                   7                   8                   9

    1     0.00000000000000     0.00000000000000     0.00000000000000    -0.42749207614263
    2     0.00000000000000     0.00000000000000     0.00000000000000    -1.42216303457544
    3     0.00000000000000     0.00000000000000     0.00000000000000     0.00000000000000
    4     0.00000000000000     0.00000000000000     0.00000000000000     0.00000000000000
    5    -0.27296188184013     0.00000000000000     0.00000000000000     0.00000000000000
    6     0.00000000000000     0.00000000000000     0.00000000000000    -1.45290231160518
    7     0.00000000000000     0.00000000000000     0.00000000000000     0.00000000000000
    8     0.00000000000000     0.00000000000000     0.00000000000000     0.00000000000000
    9    -1.45290231160518     0.00000000000000     0.00000000000000     0.00000000000000



  ## SO Dipole z (Symmetry 0) ##
  Irrep: 1 Size: 9 x 9

                 1                   2                   3                   4                   5

    1     0.00000000000000     0.00000000000000    -0.62912487452476     0.00000000000000     0.00000000000000
    2     0.00000000000000     0.00000000000000    -0.59015168908638     0.00000000000000     0.00000000000000
    3    -0.62912487452476    -0.59015168908638     0.00000000000000     0.00000000000000     0.00000000000000
    4     0.00000000000000     0.00000000000000     0.00000000000000     0.00000000000000     0.00000000000000
    5     0.00000000000000     0.00000000000000     0.00000000000000     0.00000000000000     0.00000000000000
    6     0.00000000000000     0.00000000000000    -0.27296188184013     0.00000000000000     0.00000000000000
    7    -0.42749207614263    -1.42216303457544     0.00000000000000     0.00000000000000     0.00000000000000
    8     0.00000000000000     0.00000000000000     0.00000000000000     0.00000000000000     0.00000000000000
    9     0.00000000000000     0.00000000000000     0.00000000000000     0.00000000000000     0.00000000000000

                 6                   7                   8                   9

    1     0.00000000000000    -0.42749207614263     0.00000000000000     0.00000000000000
    2     0.00000000000000    -1.42216303457544     0.00000000000000     0.00000000000000
    3    -0.27296188184013     0.00000000000000     0.00000000000000     0.00000000000000
    4     0.00000000000000     0.00000000000000     0.00000000000000     0.00000000000000
    5     0.00000000000000     0.00000000000000     0.00000000000000     0.00000000000000
    6     0.00000000000000    -1.45290231160518     0.00000000000000     0.00000000000000
    7    -1.45290231160518     0.00000000000000     0.00000000000000     0.00000000000000
    8     0.00000000000000     0.00000000000000     0.00000000000000     0.00000000000000
    9     0.00000000000000     0.00000000000000     0.00000000000000     0.00000000000000



  Nuclear Dipole Moment: (a.u.)
     X:     0.0000      Y:     0.0000      Z:     0.0000

  Electronic Dipole Moment: (a.u.)
     X:     0.0000      Y:    -0.0000      Z:    -0.0000

  Dipole Moment: (a.u.)
     X:     0.0000      Y:    -0.0000      Z:    -0.0000     Total:     0.0000

  Dipole Moment: (Debye)
     X:     0.0000      Y:    -0.0000      Z:    -0.0000     Total:     0.0000


*** Psi4 exiting successfully. Buy a developer a beer!
