    -----------------------------------------------------------------------
          Psi4: An Open-Source Ab Initio Electronic Structure Package
                              Psi4 1.0.0 Driver

                          Git: Rev {master} 6a9a71b 

    J. M. Turney, A. C. Simmonett, R. M. Parrish, E. G. Hohenstein,
    F. A. Evangelista, J. T. Fermann, B. J. Mintz, L. A. Burns, J. J. Wilke,
    M. L. Abrams, N. J. Russ, M. L. Leininger, C. L. Janssen, E. T. Seidl,
    W. D. Allen, H. F. Schaefer, R. A. King, E. F. Valeev, C. D. Sherrill,
    and T. D. Crawford, WIREs Comput. Mol. Sci. 2, 556-565 (2012)
    (doi: 10.1002/wcms.93)

                         Additional Contributions by
    A. E. DePrince, U. Bozkaya, A. Yu. Sokolov, D. G. A. Smith, R. Di Remigio,
    R. M. Richard, J. F. Gonthier, H. R. McAlexander, M. Saitow, and
    B. P. Pritchard
    -----------------------------------------------------------------------


    Psi4 started on: Thu Aug 30 10:56:06 2018

    Process ID:  23022
    PSI4DATADIR: /Users/eirikkjonstad/Documents/psi4conda/share/psi4
    Memory level set to 256.000 MB

  ==> Input File <==

--------------------------------------------------------------------------
# 
# 	A DFT calculation
#

memory 8 gb

molecule n8 {
 O          0.00000       -0.07579        10.00000
symmetry c1
}

set basis aug-cc-pvdz
set reference uhf
set print 10
h_energy = energy('scf')
--------------------------------------------------------------------------
/Users/eirikkjonstad/Documents/psi4conda/lib/python2.7/site-packages/v2rdm_casscf/v2rdm_casscf.so loaded.

  Memory set to   8.000 GiB by Python script.
   => Loading Basis Set <=

    Role: BASIS
    Keyword: BASIS
    Name: AUG-CC-PVDZ
    atoms 1 entry O          line   243 file /Users/eirikkjonstad/Documents/psi4conda/share/psi4/basis/aug-cc-pvdz.gbs

    There are an even number of electrons - assuming singlet.
    Specify the multiplicity in the molecule input block.


*** tstart() called on MBP-16.local
*** at Thu Aug 30 10:56:06 2018


         ---------------------------------------------------------
                                   SCF
            by Justin Turney, Rob Parrish, and Andy Simmonett
                              UHF Reference
                        1 Threads,   8000 MiB Core
         ---------------------------------------------------------

  ==> Geometry <==

    Molecular point group: c1
    Geometry (in Angstrom), charge = 0, multiplicity = 1:

       Center              X                  Y                   Z               Mass       
    ------------   -----------------  -----------------  -----------------  -----------------
           O          0.000000000000     0.000000000000     0.000000000000    15.994914619560

           O
              BASIS           AUG-CC-PVDZ          9425041369023020e2f8e1265469269400e53377

  Running in c1 symmetry.

  Rotational constants: A = ************  B = ************  C = ************ [cm^-1]
  Rotational constants: A = ************  B = ************  C = ************ [MHz]
  Nuclear repulsion =    0.000000000000000

  Charge       = 0
  Multiplicity = 1
  Electrons    = 8
  Nalpha       = 4
  Nbeta        = 4

  ==> Algorithm <==

  SCF Algorithm Type is DF.
  DIIS enabled.
  MOM disabled.
  Fractional occupation disabled.
  Guess Type is GWH.
  Energy threshold   = 1.00e-06
  Density threshold  = 1.00e-06
  Integral threshold = 0.00e+00

  ==> Primary Basis <==

  -AO BASIS SET INFORMATION:
    Name                   = AUG-CC-PVDZ
    Total number of shells = 9
    Number of primitives   = 25
    Number of AO           = 25
    Number of SO           = 23
    Maximum AM             = 2
    Spherical Harmonics    = TRUE

  -Contraction Scheme:
    Atom   Type   All Primitives // Shells:
   ------ ------ --------------------------
       1     O     18s 5p 2d // 4s 3p 2d 

  ==> AO Basis Functions <==

    [ AUG-CC-PVDZ ]
    spherical
    ****
    O   1
    S   8 1.00
                     11720.00000000           0.00071000
                      1759.00000000           0.00547000
                       400.80000000           0.02783700
                       113.70000000           0.10480000
                        37.03000000           0.28306200
                        13.27000000           0.44871900
                         5.02500000           0.27095200
                         1.01300000           0.01545800
    S   8 1.00
                     11720.00000000          -0.00016000
                      1759.00000000          -0.00126300
                       400.80000000          -0.00626700
                       113.70000000          -0.02571600
                        37.03000000          -0.07092400
                        13.27000000          -0.16541100
                         5.02500000          -0.11695500
                         1.01300000           0.55736800
    S   1 1.00
                         0.30230000           1.00000000
    P   3 1.00
                        17.70000000           0.04301800
                         3.85400000           0.22891300
                         1.04600000           0.50872800
    P   1 1.00
                         0.27530000           1.00000000
    D   1 1.00
                         1.18500000           1.00000000
    S   1 1.00
                         0.07896000           1.00000000
    P   1 1.00
                         0.06856000           1.00000000
    D   1 1.00
                         0.33200000           1.00000000
    ****

  ==> Pre-Iterations <==

   -------------------------------------------------------
    Irrep   Nso     Nmo     Nalpha   Nbeta   Ndocc  Nsocc
   -------------------------------------------------------
     A         23      23       0       0       0       0
   -------------------------------------------------------
    Total      23      23       4       4       4       0
   -------------------------------------------------------

  ==> Integral Setup <==

   => Loading Basis Set <=

    Role: JKFIT
    Keyword: DF_BASIS_SCF
    Name: 
    atoms 1 entry O          line   269 file /Users/eirikkjonstad/Documents/psi4conda/share/psi4/basis/aug-cc-pvdz-jkfit.gbs

  ==> DFJK: Density-Fitted J/K Matrices <==

    J tasked:                  Yes
    K tasked:                  Yes
    wK tasked:                  No
    OpenMP threads:              1
    Integrals threads:           1
    Memory (MB):              5722
    Algorithm:                Core
    Integral Cache:           NONE
    Schwarz Cutoff:          1E-12
    Fitting Condition:       1E-12

   => Auxiliary Basis Set <=

  -AO BASIS SET INFORMATION:
    Name                   = 
    Total number of shells = 28
    Number of primitives   = 28
    Number of AO           = 101
    Number of SO           = 86
    Maximum AM             = 3
    Spherical Harmonics    = TRUE

  -Contraction Scheme:
    Atom   Type   All Primitives // Shells:
   ------ ------ --------------------------
       1     O     11s 8p 6d 3f // 11s 8p 6d 3f 

  ==> AO Basis Functions <==

    [  ]
    spherical
    ****
    O   1
    S   1 1.00
                      1517.86675060           1.00000000
    S   1 1.00
                       489.67952008           1.00000000
    S   1 1.00
                       176.72118665           1.00000000
    S   1 1.00
                        63.79223314           1.00000000
    S   1 1.00
                        25.36649913           1.00000000
    S   1 1.00
                         9.91354912           1.00000000
    S   1 1.00
                         4.46453066           1.00000000
    S   1 1.00
                         1.80177437           1.00000000
    S   1 1.00
                         0.80789711           1.00000000
    S   1 1.00
                         0.33864327           1.00000000
    P   1 1.00
                       120.16030921           1.00000000
    P   1 1.00
                        34.40962247           1.00000000
    P   1 1.00
                        12.58114861           1.00000000
    P   1 1.00
                         5.06638242           1.00000000
    P   1 1.00
                         2.03469271           1.00000000
    P   1 1.00
                         0.86092967           1.00000000
    P   1 1.00
                         0.36681357           1.00000000
    D   1 1.00
                        19.04306281           1.00000000
    D   1 1.00
                         5.80603811           1.00000000
    D   1 1.00
                         2.18918416           1.00000000
    D   1 1.00
                         0.87794614           1.00000000
    D   1 1.00
                         0.35623647           1.00000000
    F   1 1.00
                         2.49391479           1.00000000
    F   1 1.00
                         0.82491479           1.00000000
    S   1 1.00
                         0.14194786           1.00000000
    P   1 1.00
                         0.15628709           1.00000000
    D   1 1.00
                         0.14454693           1.00000000
    F   1 1.00
                         0.27285792           1.00000000
    ****

  ## One-electron Hamiltonian (Symmetry 0) ##
  Irrep: 1 Size: 23 x 23

                 1                   2                   3                   4                   5

    1   -31.92112541154523     7.63219194735659    -5.71454991471249     0.00000000000000     0.00000000000000
    2     7.63219194735659    -9.17339205246046    -4.26415591158378    -0.00000000000000     0.00000000000000
    3    -5.71454991471249    -4.26415591158378    -6.56561263256001     0.00000000000000     0.00000000000000
    4     0.00000000000000    -0.00000000000000     0.00000000000000    -7.40810705132947     0.00000000000000
    5     0.00000000000000     0.00000000000000     0.00000000000000     0.00000000000000    -7.40810705132947
    6     0.00000000000000     0.00000000000000     0.00000000000000     0.00000000000000     0.00000000000000
    7     0.00000000000000     0.00000000000000     0.00000000000000    -3.25571669408317     0.00000000000000
    8     0.00000000000000     0.00000000000000     0.00000000000000     0.00000000000000    -3.25571669408317
    9     0.00000000000000     0.00000000000000     0.00000000000000     0.00000000000000     0.00000000000000
   10    -0.00000000000000     0.00000000000000     0.00000000000000     0.00000000000000     0.00000000000000
   11     0.00000000000000     0.00000000000000     0.00000000000000     0.00000000000000     0.00000000000000
   12     0.00000000000000     0.00000000000000     0.00000000000000     0.00000000000000     0.00000000000000
   13     0.00000000000000     0.00000000000000     0.00000000000000     0.00000000000000     0.00000000000000
   14     0.00000000000000     0.00000000000000     0.00000000000000     0.00000000000000     0.00000000000000
   15    -2.18674035040018    -2.27067906723514    -3.92976106380485     0.00000000000000     0.00000000000000
   16     0.00000000000000    -0.00000000000000     0.00000000000000    -0.86001841681520     0.00000000000000
   17     0.00000000000000     0.00000000000000     0.00000000000000     0.00000000000000    -0.86001841681520
   18     0.00000000000000     0.00000000000000     0.00000000000000     0.00000000000000     0.00000000000000
   19     0.00000000000000     0.00000000000000     0.00000000000000     0.00000000000000     0.00000000000000
   20     0.00000000000000     0.00000000000000     0.00000000000000     0.00000000000000     0.00000000000000
   21     0.00000000000000     0.00000000000000     0.00000000000000     0.00000000000000     0.00000000000000
   22     0.00000000000000     0.00000000000000     0.00000000000000     0.00000000000000     0.00000000000000
   23     0.00000000000000     0.00000000000000     0.00000000000000     0.00000000000000     0.00000000000000

                 6                   7                   8                   9                  10

    1     0.00000000000000     0.00000000000000     0.00000000000000     0.00000000000000    -0.00000000000000
    2     0.00000000000000     0.00000000000000     0.00000000000000     0.00000000000000     0.00000000000000
    3     0.00000000000000     0.00000000000000     0.00000000000000     0.00000000000000     0.00000000000000
    4     0.00000000000000    -3.25571669408317     0.00000000000000     0.00000000000000     0.00000000000000
    5     0.00000000000000     0.00000000000000    -3.25571669408317     0.00000000000000     0.00000000000000
    6    -7.40810705132947     0.00000000000000     0.00000000000000    -3.25571669408317     0.00000000000000
    7     0.00000000000000    -3.77726847795704     0.00000000000000     0.00000000000000     0.00000000000000
    8     0.00000000000000     0.00000000000000    -3.77726847795704     0.00000000000000     0.00000000000000
    9    -3.25571669408317     0.00000000000000     0.00000000000000    -3.77726847795704     0.00000000000000
   10     0.00000000000000     0.00000000000000     0.00000000000000     0.00000000000000    -3.26420196237979
   11     0.00000000000000     0.00000000000000     0.00000000000000     0.00000000000000     0.00000000000000
   12     0.00000000000000     0.00000000000000     0.00000000000000     0.00000000000000     0.00000000000000
   13     0.00000000000000     0.00000000000000     0.00000000000000     0.00000000000000     0.00000000000000
   14     0.00000000000000     0.00000000000000     0.00000000000000     0.00000000000000     0.00000000000000
   15     0.00000000000000     0.00000000000000     0.00000000000000     0.00000000000000     0.00000000000000
   16     0.00000000000000    -1.85759165036106     0.00000000000000     0.00000000000000     0.00000000000000
   17     0.00000000000000     0.00000000000000    -1.85759165036106     0.00000000000000     0.00000000000000
   18    -0.86001841681520     0.00000000000000     0.00000000000000    -1.85759165036106     0.00000000000000
   19     0.00000000000000     0.00000000000000     0.00000000000000     0.00000000000000    -2.11571528078232
   20     0.00000000000000     0.00000000000000     0.00000000000000     0.00000000000000     0.00000000000000
   21     0.00000000000000     0.00000000000000     0.00000000000000     0.00000000000000     0.00000000000000
   22     0.00000000000000     0.00000000000000     0.00000000000000     0.00000000000000     0.00000000000000
   23     0.00000000000000     0.00000000000000     0.00000000000000     0.00000000000000     0.00000000000000

                11                  12                  13                  14                  15

    1     0.00000000000000     0.00000000000000     0.00000000000000     0.00000000000000    -2.18674035040018
    2     0.00000000000000     0.00000000000000     0.00000000000000     0.00000000000000    -2.27067906723514
    3     0.00000000000000     0.00000000000000     0.00000000000000     0.00000000000000    -3.92976106380485
    4     0.00000000000000     0.00000000000000     0.00000000000000     0.00000000000000     0.00000000000000
    5     0.00000000000000     0.00000000000000     0.00000000000000     0.00000000000000     0.00000000000000
    6     0.00000000000000     0.00000000000000     0.00000000000000     0.00000000000000     0.00000000000000
    7     0.00000000000000     0.00000000000000     0.00000000000000     0.00000000000000     0.00000000000000
    8     0.00000000000000     0.00000000000000     0.00000000000000     0.00000000000000     0.00000000000000
    9     0.00000000000000     0.00000000000000     0.00000000000000     0.00000000000000     0.00000000000000
   10     0.00000000000000     0.00000000000000     0.00000000000000     0.00000000000000     0.00000000000000
   11    -3.26420196237979     0.00000000000000     0.00000000000000     0.00000000000000     0.00000000000000
   12     0.00000000000000    -3.26420196237979     0.00000000000000     0.00000000000000     0.00000000000000
   13     0.00000000000000     0.00000000000000    -3.26420196237978     0.00000000000000     0.00000000000000
   14     0.00000000000000     0.00000000000000     0.00000000000000    -3.26420196237979     0.00000000000000
   15     0.00000000000000     0.00000000000000     0.00000000000000     0.00000000000000    -3.46882626972308
   16     0.00000000000000     0.00000000000000     0.00000000000000     0.00000000000000     0.00000000000000
   17     0.00000000000000     0.00000000000000     0.00000000000000     0.00000000000000     0.00000000000000
   18     0.00000000000000     0.00000000000000     0.00000000000000     0.00000000000000     0.00000000000000
   19     0.00000000000000     0.00000000000000     0.00000000000000     0.00000000000000     0.00000000000000
   20    -2.11571528078232     0.00000000000000     0.00000000000000     0.00000000000000     0.00000000000000
   21     0.00000000000000    -2.11571528078232     0.00000000000000     0.00000000000000     0.00000000000000
   22     0.00000000000000     0.00000000000000    -2.11571528078232     0.00000000000000     0.00000000000000
   23     0.00000000000000     0.00000000000000     0.00000000000000    -2.11571528078232     0.00000000000000

                16                  17                  18                  19                  20

    1     0.00000000000000     0.00000000000000     0.00000000000000     0.00000000000000     0.00000000000000
    2    -0.00000000000000     0.00000000000000     0.00000000000000     0.00000000000000     0.00000000000000
    3     0.00000000000000     0.00000000000000     0.00000000000000     0.00000000000000     0.00000000000000
    4    -0.86001841681520     0.00000000000000     0.00000000000000     0.00000000000000     0.00000000000000
    5     0.00000000000000    -0.86001841681520     0.00000000000000     0.00000000000000     0.00000000000000
    6     0.00000000000000     0.00000000000000    -0.86001841681520     0.00000000000000     0.00000000000000
    7    -1.85759165036106     0.00000000000000     0.00000000000000     0.00000000000000     0.00000000000000
    8     0.00000000000000    -1.85759165036106     0.00000000000000     0.00000000000000     0.00000000000000
    9     0.00000000000000     0.00000000000000    -1.85759165036106     0.00000000000000     0.00000000000000
   10     0.00000000000000     0.00000000000000     0.00000000000000    -2.11571528078232     0.00000000000000
   11     0.00000000000000     0.00000000000000     0.00000000000000     0.00000000000000    -2.11571528078232
   12     0.00000000000000     0.00000000000000     0.00000000000000     0.00000000000000     0.00000000000000
   13     0.00000000000000     0.00000000000000     0.00000000000000     0.00000000000000     0.00000000000000
   14     0.00000000000000     0.00000000000000     0.00000000000000     0.00000000000000     0.00000000000000
   15     0.00000000000000     0.00000000000000     0.00000000000000     0.00000000000000     0.00000000000000
   16    -2.05705664659463     0.00000000000000     0.00000000000000     0.00000000000000     0.00000000000000
   17     0.00000000000000    -2.05705664659463     0.00000000000000     0.00000000000000     0.00000000000000
   18     0.00000000000000     0.00000000000000    -2.05705664659463     0.00000000000000     0.00000000000000
   19     0.00000000000000     0.00000000000000     0.00000000000000    -2.76108586722022     0.00000000000000
   20     0.00000000000000     0.00000000000000     0.00000000000000     0.00000000000000    -2.76108586722022
   21     0.00000000000000     0.00000000000000     0.00000000000000     0.00000000000000     0.00000000000000
   22     0.00000000000000     0.00000000000000     0.00000000000000    -0.00000000000000     0.00000000000000
   23     0.00000000000000     0.00000000000000     0.00000000000000     0.00000000000000     0.00000000000000

                21                  22                  23

    1     0.00000000000000     0.00000000000000     0.00000000000000
    2     0.00000000000000     0.00000000000000     0.00000000000000
    3     0.00000000000000     0.00000000000000     0.00000000000000
    4     0.00000000000000     0.00000000000000     0.00000000000000
    5     0.00000000000000     0.00000000000000     0.00000000000000
    6     0.00000000000000     0.00000000000000     0.00000000000000
    7     0.00000000000000     0.00000000000000     0.00000000000000
    8     0.00000000000000     0.00000000000000     0.00000000000000
    9     0.00000000000000     0.00000000000000     0.00000000000000
   10     0.00000000000000     0.00000000000000     0.00000000000000
   11     0.00000000000000     0.00000000000000     0.00000000000000
   12    -2.11571528078232     0.00000000000000     0.00000000000000
   13     0.00000000000000    -2.11571528078232     0.00000000000000
   14     0.00000000000000     0.00000000000000    -2.11571528078232
   15     0.00000000000000     0.00000000000000     0.00000000000000
   16     0.00000000000000     0.00000000000000     0.00000000000000
   17     0.00000000000000     0.00000000000000     0.00000000000000
   18     0.00000000000000     0.00000000000000     0.00000000000000
   19     0.00000000000000    -0.00000000000000     0.00000000000000
   20     0.00000000000000     0.00000000000000     0.00000000000000
   21    -2.76108586722022     0.00000000000000     0.00000000000000
   22     0.00000000000000    -2.76108586722023     0.00000000000000
   23     0.00000000000000     0.00000000000000    -2.76108586722022



  Minimum eigenvalue in the overlap matrix is 9.3337677806E-02.
  Using Symmetric Orthogonalization.
  ## S (Symmetry 0) ##
  Irrep: 1 Size: 23 x 23

                 1                   2                   3                   4                   5

    1     1.00000000000000    -0.21406265175603     0.19438415205281    -0.00000000000000     0.00000000000000
    2    -0.21406265175603     1.00000000000000     0.70860732857704     0.00000000000000     0.00000000000000
    3     0.19438415205281     0.70860732857704     1.00000000000000     0.00000000000000     0.00000000000000
    4    -0.00000000000000     0.00000000000000     0.00000000000000     1.00000000000000     0.00000000000000
    5     0.00000000000000     0.00000000000000     0.00000000000000     0.00000000000000     1.00000000000000
    6     0.00000000000000     0.00000000000000     0.00000000000000     0.00000000000000     0.00000000000000
    7     0.00000000000000     0.00000000000000     0.00000000000000     0.50127148324600     0.00000000000000
    8     0.00000000000000     0.00000000000000     0.00000000000000     0.00000000000000     0.50127148324600
    9     0.00000000000000     0.00000000000000     0.00000000000000     0.00000000000000     0.00000000000000
   10     0.00000000000000     0.00000000000000     0.00000000000000     0.00000000000000     0.00000000000000
   11     0.00000000000000     0.00000000000000     0.00000000000000     0.00000000000000     0.00000000000000
   12     0.00000000000000     0.00000000000000     0.00000000000000     0.00000000000000     0.00000000000000
   13     0.00000000000000     0.00000000000000     0.00000000000000     0.00000000000000     0.00000000000000
   14     0.00000000000000     0.00000000000000     0.00000000000000     0.00000000000000     0.00000000000000
   15     0.07522736010911     0.35609529999429     0.72962061011665    -0.00000000000000     0.00000000000000
   16    -0.00000000000000     0.00000000000000     0.00000000000000     0.13072147691857     0.00000000000000
   17     0.00000000000000     0.00000000000000     0.00000000000000     0.00000000000000     0.13072147691857
   18     0.00000000000000     0.00000000000000     0.00000000000000     0.00000000000000     0.00000000000000
   19     0.00000000000000     0.00000000000000     0.00000000000000     0.00000000000000     0.00000000000000
   20     0.00000000000000     0.00000000000000     0.00000000000000     0.00000000000000     0.00000000000000
   21     0.00000000000000     0.00000000000000     0.00000000000000     0.00000000000000     0.00000000000000
   22     0.00000000000000     0.00000000000000     0.00000000000000     0.00000000000000     0.00000000000000
   23     0.00000000000000     0.00000000000000     0.00000000000000     0.00000000000000     0.00000000000000

                 6                   7                   8                   9                  10

    1     0.00000000000000     0.00000000000000     0.00000000000000     0.00000000000000     0.00000000000000
    2     0.00000000000000     0.00000000000000     0.00000000000000     0.00000000000000     0.00000000000000
    3     0.00000000000000     0.00000000000000     0.00000000000000     0.00000000000000     0.00000000000000
    4     0.00000000000000     0.50127148324600     0.00000000000000     0.00000000000000     0.00000000000000
    5     0.00000000000000     0.00000000000000     0.50127148324600     0.00000000000000     0.00000000000000
    6     1.00000000000000     0.00000000000000     0.00000000000000     0.50127148324600     0.00000000000000
    7     0.00000000000000     1.00000000000000     0.00000000000000     0.00000000000000     0.00000000000000
    8     0.00000000000000     0.00000000000000     1.00000000000000     0.00000000000000     0.00000000000000
    9     0.50127148324600     0.00000000000000     0.00000000000000     1.00000000000000     0.00000000000000
   10     0.00000000000000     0.00000000000000     0.00000000000000     0.00000000000000     1.00000000000000
   11     0.00000000000000     0.00000000000000     0.00000000000000     0.00000000000000     0.00000000000000
   12     0.00000000000000     0.00000000000000     0.00000000000000     0.00000000000000     0.00000000000000
   13     0.00000000000000     0.00000000000000     0.00000000000000     0.00000000000000    -0.00000000000000
   14     0.00000000000000     0.00000000000000     0.00000000000000     0.00000000000000     0.00000000000000
   15     0.00000000000000     0.00000000000000     0.00000000000000     0.00000000000000     0.00000000000000
   16     0.00000000000000     0.57077785815431     0.00000000000000     0.00000000000000     0.00000000000000
   17     0.00000000000000     0.00000000000000     0.57077785815431     0.00000000000000     0.00000000000000
   18     0.13072147691857     0.00000000000000     0.00000000000000     0.57077785815431     0.00000000000000
   19     0.00000000000000     0.00000000000000     0.00000000000000     0.00000000000000     0.51422621342221
   20     0.00000000000000     0.00000000000000     0.00000000000000     0.00000000000000     0.00000000000000
   21     0.00000000000000     0.00000000000000     0.00000000000000     0.00000000000000     0.00000000000000
   22     0.00000000000000     0.00000000000000     0.00000000000000     0.00000000000000     0.00000000000000
   23     0.00000000000000     0.00000000000000     0.00000000000000     0.00000000000000     0.00000000000000

                11                  12                  13                  14                  15

    1     0.00000000000000     0.00000000000000     0.00000000000000     0.00000000000000     0.07522736010911
    2     0.00000000000000     0.00000000000000     0.00000000000000     0.00000000000000     0.35609529999429
    3     0.00000000000000     0.00000000000000     0.00000000000000     0.00000000000000     0.72962061011665
    4     0.00000000000000     0.00000000000000     0.00000000000000     0.00000000000000    -0.00000000000000
    5     0.00000000000000     0.00000000000000     0.00000000000000     0.00000000000000     0.00000000000000
    6     0.00000000000000     0.00000000000000     0.00000000000000     0.00000000000000     0.00000000000000
    7     0.00000000000000     0.00000000000000     0.00000000000000     0.00000000000000     0.00000000000000
    8     0.00000000000000     0.00000000000000     0.00000000000000     0.00000000000000     0.00000000000000
    9     0.00000000000000     0.00000000000000     0.00000000000000     0.00000000000000     0.00000000000000
   10     0.00000000000000     0.00000000000000     0.00000000000000     0.00000000000000     0.00000000000000
   11     1.00000000000000     0.00000000000000     0.00000000000000     0.00000000000000     0.00000000000000
   12     0.00000000000000     1.00000000000000     0.00000000000000     0.00000000000000     0.00000000000000
   13     0.00000000000000     0.00000000000000     1.00000000000000     0.00000000000000     0.00000000000000
   14     0.00000000000000     0.00000000000000     0.00000000000000     1.00000000000000     0.00000000000000
   15     0.00000000000000     0.00000000000000     0.00000000000000     0.00000000000000     1.00000000000000
   16     0.00000000000000     0.00000000000000     0.00000000000000     0.00000000000000     0.00000000000000
   17     0.00000000000000     0.00000000000000     0.00000000000000     0.00000000000000     0.00000000000000
   18     0.00000000000000     0.00000000000000     0.00000000000000     0.00000000000000     0.00000000000000
   19     0.00000000000000     0.00000000000000    -0.00000000000000     0.00000000000000     0.00000000000000
   20     0.51422621342221     0.00000000000000     0.00000000000000     0.00000000000000     0.00000000000000
   21     0.00000000000000     0.51422621342221     0.00000000000000     0.00000000000000     0.00000000000000
   22     0.00000000000000     0.00000000000000     0.51422621342221     0.00000000000000     0.00000000000000
   23     0.00000000000000     0.00000000000000     0.00000000000000     0.51422621342221     0.00000000000000

                16                  17                  18                  19                  20

    1    -0.00000000000000     0.00000000000000     0.00000000000000     0.00000000000000     0.00000000000000
    2     0.00000000000000     0.00000000000000     0.00000000000000     0.00000000000000     0.00000000000000
    3     0.00000000000000     0.00000000000000     0.00000000000000     0.00000000000000     0.00000000000000
    4     0.13072147691857     0.00000000000000     0.00000000000000     0.00000000000000     0.00000000000000
    5     0.00000000000000     0.13072147691857     0.00000000000000     0.00000000000000     0.00000000000000
    6     0.00000000000000     0.00000000000000     0.13072147691857     0.00000000000000     0.00000000000000
    7     0.57077785815431     0.00000000000000     0.00000000000000     0.00000000000000     0.00000000000000
    8     0.00000000000000     0.57077785815431     0.00000000000000     0.00000000000000     0.00000000000000
    9     0.00000000000000     0.00000000000000     0.57077785815431     0.00000000000000     0.00000000000000
   10     0.00000000000000     0.00000000000000     0.00000000000000     0.51422621342221     0.00000000000000
   11     0.00000000000000     0.00000000000000     0.00000000000000     0.00000000000000     0.51422621342221
   12     0.00000000000000     0.00000000000000     0.00000000000000     0.00000000000000     0.00000000000000
   13     0.00000000000000     0.00000000000000     0.00000000000000     0.00000000000000     0.00000000000000
   14     0.00000000000000     0.00000000000000     0.00000000000000     0.00000000000000     0.00000000000000
   15     0.00000000000000     0.00000000000000     0.00000000000000     0.00000000000000     0.00000000000000
   16     1.00000000000000     0.00000000000000     0.00000000000000     0.00000000000000     0.00000000000000
   17     0.00000000000000     1.00000000000000     0.00000000000000     0.00000000000000     0.00000000000000
   18     0.00000000000000     0.00000000000000     1.00000000000000     0.00000000000000     0.00000000000000
   19     0.00000000000000     0.00000000000000     0.00000000000000     1.00000000000000     0.00000000000000
   20     0.00000000000000     0.00000000000000     0.00000000000000     0.00000000000000     1.00000000000000
   21     0.00000000000000     0.00000000000000     0.00000000000000     0.00000000000000     0.00000000000000
   22     0.00000000000000     0.00000000000000     0.00000000000000     0.00000000000000     0.00000000000000
   23     0.00000000000000     0.00000000000000     0.00000000000000     0.00000000000000     0.00000000000000

                21                  22                  23

    1     0.00000000000000     0.00000000000000     0.00000000000000
    2     0.00000000000000     0.00000000000000     0.00000000000000
    3     0.00000000000000     0.00000000000000     0.00000000000000
    4     0.00000000000000     0.00000000000000     0.00000000000000
    5     0.00000000000000     0.00000000000000     0.00000000000000
    6     0.00000000000000     0.00000000000000     0.00000000000000
    7     0.00000000000000     0.00000000000000     0.00000000000000
    8     0.00000000000000     0.00000000000000     0.00000000000000
    9     0.00000000000000     0.00000000000000     0.00000000000000
   10     0.00000000000000    -0.00000000000000     0.00000000000000
   11     0.00000000000000     0.00000000000000     0.00000000000000
   12     0.51422621342221     0.00000000000000     0.00000000000000
   13     0.00000000000000     0.51422621342221     0.00000000000000
   14     0.00000000000000     0.00000000000000     0.51422621342221
   15     0.00000000000000     0.00000000000000     0.00000000000000
   16     0.00000000000000     0.00000000000000     0.00000000000000
   17     0.00000000000000     0.00000000000000     0.00000000000000
   18     0.00000000000000     0.00000000000000     0.00000000000000
   19     0.00000000000000     0.00000000000000     0.00000000000000
   20     0.00000000000000     0.00000000000000     0.00000000000000
   21     1.00000000000000     0.00000000000000     0.00000000000000
   22     0.00000000000000     1.00000000000000     0.00000000000000
   23     0.00000000000000     0.00000000000000     1.00000000000000



  ## X (Symmetry 0) ##
  Irrep: 1 Size: 23 x 23

                 1                   2                   3                   4                   5

    1     1.12660866073857     0.34963598388686    -0.41218741337536    -0.00000000000000    -0.00000000000000
    2     0.34963598388686     1.54841491624974    -0.91071356614453     0.00000000000000    -0.00000000000000
    3    -0.41218741337536    -0.91071356614453     2.12626384148089     0.00000000000000     0.00000000000000
    4    -0.00000000000000     0.00000000000000     0.00000000000000     1.12917149270176    -0.00000000000000
    5    -0.00000000000000    -0.00000000000000     0.00000000000000    -0.00000000000000     1.12917149270176
    6    -0.00000000000000    -0.00000000000000     0.00000000000000    -0.00000000000000    -0.00000000000000
    7     0.00000000000000     0.00000000000000    -0.00000000000000    -0.34861685281727     0.00000000000000
    8    -0.00000000000000    -0.00000000000000     0.00000000000000     0.00000000000000    -0.34861685281726
    9     0.00000000000000     0.00000000000000    -0.00000000000000    -0.00000000000000    -0.00000000000000
   10    -0.00000000000000     0.00000000000000     0.00000000000000     0.00000000000000     0.00000000000000
   11     0.00000000000000    -0.00000000000000     0.00000000000000    -0.00000000000000    -0.00000000000000
   12    -0.00000000000000    -0.00000000000000    -0.00000000000000    -0.00000000000000     0.00000000000000
   13     0.00000000000000    -0.00000000000000     0.00000000000000    -0.00000000000000     0.00000000000000
   14     0.00000000000000     0.00000000000000     0.00000000000000     0.00000000000000     0.00000000000000
   15     0.11135872680534     0.19802033784157    -0.80107347666439    -0.00000000000000    -0.00000000000000
   16    -0.00000000000000     0.00000000000000     0.00000000000000     0.07833412934623    -0.00000000000000
   17    -0.00000000000000    -0.00000000000000    -0.00000000000000    -0.00000000000000     0.07833412934623
   18    -0.00000000000000    -0.00000000000000     0.00000000000000    -0.00000000000000     0.00000000000000
   19    -0.00000000000000     0.00000000000000    -0.00000000000000     0.00000000000000    -0.00000000000000
   20    -0.00000000000000     0.00000000000000    -0.00000000000000     0.00000000000000     0.00000000000000
   21     0.00000000000000     0.00000000000000     0.00000000000000     0.00000000000000    -0.00000000000000
   22    -0.00000000000000    -0.00000000000000    -0.00000000000000    -0.00000000000000     0.00000000000000
   23     0.00000000000000     0.00000000000000     0.00000000000000     0.00000000000000     0.00000000000000

                 6                   7                   8                   9                  10

    1    -0.00000000000000     0.00000000000000    -0.00000000000000     0.00000000000000    -0.00000000000000
    2    -0.00000000000000     0.00000000000000    -0.00000000000000     0.00000000000000     0.00000000000000
    3     0.00000000000000    -0.00000000000000     0.00000000000000    -0.00000000000000     0.00000000000000
    4    -0.00000000000000    -0.34861685281727     0.00000000000000    -0.00000000000000     0.00000000000000
    5     0.00000000000000     0.00000000000000    -0.34861685281726    -0.00000000000000     0.00000000000000
    6     1.12917149270176    -0.00000000000000     0.00000000000000    -0.34861685281726     0.00000000000000
    7    -0.00000000000000     1.32510185678697    -0.00000000000000    -0.00000000000000    -0.00000000000000
    8     0.00000000000000    -0.00000000000000     1.32510185678696     0.00000000000000    -0.00000000000000
    9    -0.34861685281726    -0.00000000000000     0.00000000000000     1.32510185678696    -0.00000000000000
   10     0.00000000000000    -0.00000000000000    -0.00000000000000    -0.00000000000000     1.12371212544091
   11    -0.00000000000000     0.00000000000000     0.00000000000000     0.00000000000000    -0.00000000000000
   12     0.00000000000000     0.00000000000000     0.00000000000000    -0.00000000000000    -0.00000000000000
   13    -0.00000000000000     0.00000000000000     0.00000000000000     0.00000000000000    -0.00000000000000
   14     0.00000000000000     0.00000000000000     0.00000000000000     0.00000000000000     0.00000000000000
   15     0.00000000000000     0.00000000000000     0.00000000000000     0.00000000000000    -0.00000000000000
   16     0.00000000000000    -0.40928942137505     0.00000000000000    -0.00000000000000     0.00000000000000
   17     0.00000000000000     0.00000000000000    -0.40928942137505    -0.00000000000000     0.00000000000000
   18     0.07833412934623    -0.00000000000000     0.00000000000000    -0.40928942137505     0.00000000000000
   19    -0.00000000000000    -0.00000000000000     0.00000000000000     0.00000000000000    -0.31106010413476
   20     0.00000000000000    -0.00000000000000     0.00000000000000    -0.00000000000000     0.00000000000000
   21    -0.00000000000000    -0.00000000000000     0.00000000000000     0.00000000000000     0.00000000000000
   22     0.00000000000000     0.00000000000000     0.00000000000000    -0.00000000000000     0.00000000000000
   23     0.00000000000000     0.00000000000000     0.00000000000000     0.00000000000000     0.00000000000000

                11                  12                  13                  14                  15

    1     0.00000000000000    -0.00000000000000     0.00000000000000     0.00000000000000     0.11135872680534
    2    -0.00000000000000    -0.00000000000000    -0.00000000000000     0.00000000000000     0.19802033784157
    3     0.00000000000000    -0.00000000000000     0.00000000000000     0.00000000000000    -0.80107347666439
    4    -0.00000000000000    -0.00000000000000    -0.00000000000000     0.00000000000000    -0.00000000000000
    5     0.00000000000000     0.00000000000000     0.00000000000000     0.00000000000000    -0.00000000000000
    6    -0.00000000000000     0.00000000000000    -0.00000000000000     0.00000000000000     0.00000000000000
    7     0.00000000000000     0.00000000000000     0.00000000000000     0.00000000000000     0.00000000000000
    8     0.00000000000000     0.00000000000000     0.00000000000000     0.00000000000000     0.00000000000000
    9     0.00000000000000    -0.00000000000000     0.00000000000000     0.00000000000000     0.00000000000000
   10    -0.00000000000000    -0.00000000000000    -0.00000000000000     0.00000000000000    -0.00000000000000
   11     1.12371212544091    -0.00000000000000     0.00000000000000     0.00000000000000     0.00000000000000
   12    -0.00000000000000     1.12371212544092     0.00000000000000     0.00000000000000    -0.00000000000000
   13     0.00000000000000     0.00000000000000     1.12371212544092     0.00000000000000    -0.00000000000000
   14     0.00000000000000     0.00000000000000     0.00000000000000     1.12371212544091     0.00000000000000
   15     0.00000000000000    -0.00000000000000    -0.00000000000000     0.00000000000000     1.41730137710312
   16    -0.00000000000000    -0.00000000000000     0.00000000000000     0.00000000000000    -0.00000000000000
   17    -0.00000000000000     0.00000000000000    -0.00000000000000     0.00000000000000    -0.00000000000000
   18    -0.00000000000000     0.00000000000000    -0.00000000000000     0.00000000000000    -0.00000000000000
   19     0.00000000000000     0.00000000000000    -0.00000000000000     0.00000000000000     0.00000000000000
   20    -0.31106010413476     0.00000000000000    -0.00000000000000     0.00000000000000    -0.00000000000000
   21     0.00000000000000    -0.31106010413476    -0.00000000000000     0.00000000000000     0.00000000000000
   22    -0.00000000000000    -0.00000000000000    -0.31106010413476     0.00000000000000     0.00000000000000
   23     0.00000000000000     0.00000000000000     0.00000000000000    -0.31106010413476     0.00000000000000

                16                  17                  18                  19                  20

    1    -0.00000000000000    -0.00000000000000    -0.00000000000000    -0.00000000000000    -0.00000000000000
    2     0.00000000000000    -0.00000000000000    -0.00000000000000     0.00000000000000     0.00000000000000
    3     0.00000000000000    -0.00000000000000     0.00000000000000    -0.00000000000000    -0.00000000000000
    4     0.07833412934623    -0.00000000000000     0.00000000000000     0.00000000000000    -0.00000000000000
    5    -0.00000000000000     0.07833412934623    -0.00000000000000    -0.00000000000000     0.00000000000000
    6     0.00000000000000     0.00000000000000     0.07833412934623    -0.00000000000000     0.00000000000000
    7    -0.40928942137505     0.00000000000000    -0.00000000000000    -0.00000000000000    -0.00000000000000
    8     0.00000000000000    -0.40928942137505     0.00000000000000     0.00000000000000     0.00000000000000
    9    -0.00000000000000    -0.00000000000000    -0.40928942137505     0.00000000000000    -0.00000000000000
   10     0.00000000000000     0.00000000000000     0.00000000000000    -0.31106010413476     0.00000000000000
   11    -0.00000000000000    -0.00000000000000    -0.00000000000000     0.00000000000000    -0.31106010413476
   12    -0.00000000000000     0.00000000000000     0.00000000000000     0.00000000000000     0.00000000000000
   13     0.00000000000000    -0.00000000000000    -0.00000000000000    -0.00000000000000    -0.00000000000000
   14     0.00000000000000     0.00000000000000     0.00000000000000     0.00000000000000     0.00000000000000
   15    -0.00000000000000    -0.00000000000000    -0.00000000000000     0.00000000000000    -0.00000000000000
   16     1.17646544093250    -0.00000000000000    -0.00000000000000     0.00000000000000     0.00000000000000
   17    -0.00000000000000     1.17646544093249     0.00000000000000    -0.00000000000000     0.00000000000000
   18    -0.00000000000000     0.00000000000000     1.17646544093249    -0.00000000000000     0.00000000000000
   19     0.00000000000000    -0.00000000000000    -0.00000000000000     1.12371212544091    -0.00000000000000
   20     0.00000000000000     0.00000000000000     0.00000000000000    -0.00000000000000     1.12371212544091
   21     0.00000000000000    -0.00000000000000    -0.00000000000000    -0.00000000000000    -0.00000000000000
   22    -0.00000000000000     0.00000000000000     0.00000000000000     0.00000000000000     0.00000000000000
   23     0.00000000000000     0.00000000000000     0.00000000000000     0.00000000000000     0.00000000000000

                21                  22                  23

    1     0.00000000000000    -0.00000000000000     0.00000000000000
    2     0.00000000000000    -0.00000000000000     0.00000000000000
    3     0.00000000000000    -0.00000000000000     0.00000000000000
    4     0.00000000000000    -0.00000000000000     0.00000000000000
    5    -0.00000000000000     0.00000000000000     0.00000000000000
    6    -0.00000000000000     0.00000000000000     0.00000000000000
    7    -0.00000000000000     0.00000000000000     0.00000000000000
    8    -0.00000000000000     0.00000000000000     0.00000000000000
    9     0.00000000000000    -0.00000000000000     0.00000000000000
   10     0.00000000000000     0.00000000000000     0.00000000000000
   11     0.00000000000000    -0.00000000000000     0.00000000000000
   12    -0.31106010413476    -0.00000000000000     0.00000000000000
   13    -0.00000000000000    -0.31106010413476     0.00000000000000
   14     0.00000000000000     0.00000000000000    -0.31106010413476
   15     0.00000000000000     0.00000000000000     0.00000000000000
   16     0.00000000000000    -0.00000000000000     0.00000000000000
   17    -0.00000000000000     0.00000000000000     0.00000000000000
   18    -0.00000000000000     0.00000000000000     0.00000000000000
   19    -0.00000000000000     0.00000000000000     0.00000000000000
   20    -0.00000000000000     0.00000000000000     0.00000000000000
   21     1.12371212544091     0.00000000000000     0.00000000000000
   22     0.00000000000000     1.12371212544091     0.00000000000000
   23     0.00000000000000     0.00000000000000     1.12371212544091



  SCF Guess: Generalized Wolfsberg-Helmholtz.

  ## C alpha (Symmetry 0) ##
  Irrep: 1 Size: 23 x 23

                 1                   2                   3                   4                   5

    1    -0.97634434871768    -0.06308230896429    -0.00000000000000     0.00000000000000    -0.00000000000000
    2     0.06232497949098    -0.63038809571991    -0.00000000000000     0.00000000000000    -0.00000000000000
    3    -0.05806935196495    -0.47838169854251     0.00000000000000    -0.00000000000000    -0.00000000000000
    4     0.00000000000000    -0.00000000000000     0.56752636075139    -0.08406929782838     0.64556249569387
    5     0.00000000000000     0.00000000000000     0.46281052065435    -0.55021094010764    -0.47851760279961
    6    -0.00000000000000    -0.00000000000000    -0.45784823321217    -0.66038248567030     0.31650390328713
    7    -0.00000000000000    -0.00000000000000     0.16421771147977    -0.02432603778406     0.18679801149616
    8     0.00000000000000    -0.00000000000000     0.13391745266245    -0.15920737372618    -0.13846240645192
    9    -0.00000000000000    -0.00000000000000    -0.13248158017473    -0.19108627897833     0.09158261230969
   10     0.00000000000000    -0.00000000000000    -0.00000000000000    -0.00000000000000     0.00000000000000
   11    -0.00000000000000    -0.00000000000000    -0.00000000000000    -0.00000000000000     0.00000000000000
   12     0.00000000000000     0.00000000000000    -0.00000000000000    -0.00000000000000    -0.00000000000000
   13    -0.00000000000000    -0.00000000000000     0.00000000000000    -0.00000000000000    -0.00000000000000
   14     0.00000000000000     0.00000000000000     0.00000000000000     0.00000000000000     0.00000000000000
   15     0.02084611547918     0.04715158626808    -0.00000000000000    -0.00000000000000     0.00000000000000
   16     0.00000000000000    -0.00000000000000    -0.03557714888532     0.00527014449437    -0.04046908586532
   17     0.00000000000000     0.00000000000000    -0.02901271189802     0.03449167807576     0.02999735902401
   18    -0.00000000000000     0.00000000000000     0.02870163552986     0.04139812286930    -0.01984102813326
   19    -0.00000000000000     0.00000000000000     0.00000000000000    -0.00000000000000    -0.00000000000000
   20     0.00000000000000     0.00000000000000     0.00000000000000     0.00000000000000     0.00000000000000
   21    -0.00000000000000    -0.00000000000000    -0.00000000000000     0.00000000000000    -0.00000000000000
   22     0.00000000000000     0.00000000000000     0.00000000000000    -0.00000000000000     0.00000000000000
   23     0.00000000000000     0.00000000000000     0.00000000000000     0.00000000000000     0.00000000000000

                 6                   7                   8                   9                  10

    1     0.00000000000000     0.00000000000000     0.00000000000000    -0.00000000000000     0.00000000000000
    2     0.00000000000000     0.00000000000000     0.00000000000000    -0.00000000000000     0.00000000000000
    3     0.00000000000000    -0.00000000000000     0.00000000000000     0.00000000000000     0.00000000000000
    4     0.00000000000000    -0.00000000000000     0.00000000000000     0.00000000000000    -0.00000000000000
    5     0.00000000000000    -0.00000000000000     0.00000000000000     0.00000000000000    -0.00000000000000
    6    -0.00000000000000    -0.00000000000000     0.00000000000000     0.00000000000000     0.00000000000000
    7    -0.00000000000000     0.00000000000000     0.00000000000000     0.00000000000000     0.00000000000000
    8    -0.00000000000000     0.00000000000000     0.00000000000000    -0.00000000000000    -0.00000000000000
    9     0.00000000000000    -0.00000000000000     0.00000000000000    -0.00000000000000    -0.00000000000000
   10     0.01442959261795    -0.02120422250297     0.00000000000000    -0.66472032283264    -0.00050763883760
   11    -0.13547191333996    -0.65103034742979     0.00000000000000     0.01782710078826    -0.00048926265188
   12     0.65111415598458    -0.13498367773768     0.00000000000000     0.01844086256980    -0.00094587926453
   13     0.00083720271219    -0.00068694752467     0.00000000000000    -0.00046792887502     0.66521410516937
   14     0.00000000000000     0.00000000000000    -0.66521515126987     0.00000000000000     0.00000000000000
   15    -0.00000000000000    -0.00000000000000     0.00000000000000     0.00000000000000    -0.00000000000000
   16     0.00000000000000     0.00000000000000     0.00000000000000    -0.00000000000000    -0.00000000000000
   17    -0.00000000000000     0.00000000000000     0.00000000000000    -0.00000000000000    -0.00000000000000
   18     0.00000000000000     0.00000000000000     0.00000000000000    -0.00000000000000    -0.00000000000000
   19     0.01039482450741    -0.01527514861788     0.00000000000000    -0.47885281901593    -0.00036569408228
   20    -0.09759158156001    -0.46899080173025     0.00000000000000     0.01284232958451    -0.00035245620157
   21     0.46905117593778    -0.09723986522689     0.00000000000000     0.01328447276744    -0.00068139477117
   22     0.00060310609598    -0.00049486490394     0.00000000000000    -0.00033708772428     0.47920853111889
   23     0.00000000000000     0.00000000000000    -0.47920928471128     0.00000000000000     0.00000000000000

                11                  12                  13                  14                  15

    1     0.00000000000000     0.00000000000000     0.00000000000000     0.17938971242355     0.00000000000000
    2    -0.00000000000000     0.00000000000000    -0.00000000000000     0.51148142824251     0.00000000000000
    3     0.00000000000000     0.00000000000000     0.00000000000000     0.13117000622678     0.00000000000000
    4    -0.05782655437740     0.31312793871564     0.31298008925630     0.00000000000000    -0.00000000000000
    5     0.03311405597675     0.31781350892609    -0.31184545131716    -0.00000000000000     0.00000000000000
    6     0.44148510911689     0.01717615225040     0.06438502068233    -0.00000000000000     0.00000000000000
    7     0.05841235772386    -0.31630003493242    -0.31615068770602    -0.00000000000000     0.00000000000000
    8    -0.03344951301746    -0.32103307161807     0.31500455548525     0.00000000000000    -0.00000000000000
    9    -0.44595750864195    -0.01735015271742    -0.06503726360055     0.00000000000000    -0.00000000000000
   10     0.00000000000000     0.00000000000000     0.00000000000000    -0.00000000000000     0.51595554046874
   11     0.00000000000000    -0.00000000000000    -0.00000000000000    -0.00000000000000    -0.11989854237221
   12    -0.00000000000000    -0.00000000000000     0.00000000000000    -0.00000000000000    -0.22227989044006
   13    -0.00000000000000     0.00000000000000    -0.00000000000000     0.00000000000000    -0.76614750660096
   14     0.00000000000000     0.00000000000000     0.00000000000000     0.00000000000000     0.00000000000000
   15    -0.00000000000000    -0.00000000000000    -0.00000000000000    -1.13331469657942    -0.00000000000000
   16     0.09283252861996    -0.50268356199845    -0.50244621015702     0.00000000000000     0.00000000000000
   17    -0.05316003317648    -0.51020559638812     0.50062470600390     0.00000000000000    -0.00000000000000
   18    -0.70874323169768    -0.02757393489088    -0.10336123844040    -0.00000000000000     0.00000000000000
   19    -0.00000000000000     0.00000000000000    -0.00000000000000     0.00000000000000    -0.57272066099596
   20    -0.00000000000000     0.00000000000000     0.00000000000000     0.00000000000000     0.13308970842231
   21     0.00000000000000     0.00000000000000    -0.00000000000000     0.00000000000000     0.24673499128100
   22     0.00000000000000    -0.00000000000000     0.00000000000000    -0.00000000000000     0.85043859787274
   23     0.00000000000000     0.00000000000000     0.00000000000000     0.00000000000000     0.00000000000000

                16                  17                  18                  19                  20

    1    -0.00000000000000    -0.00000000000000     0.00000000000000     0.00000000000000    -0.00000000000000
    2    -0.00000000000000    -0.00000000000000     0.00000000000000     0.00000000000000     0.00000000000000
    3     0.00000000000000    -0.00000000000000     0.00000000000000     0.00000000000000    -0.00000000000000
    4     0.00000000000000    -0.00000000000000     0.00000000000000     0.00000000000000    -0.11807654977227
    5    -0.00000000000000    -0.00000000000000     0.00000000000000    -0.00000000000000    -0.10891330086039
    6     0.00000000000000    -0.00000000000000     0.00000000000000     0.00000000000000     0.65699293878292
    7    -0.00000000000000     0.00000000000000     0.00000000000000     0.00000000000000     0.23285901560089
    8     0.00000000000000     0.00000000000000     0.00000000000000     0.00000000000000     0.21478815288140
    9    -0.00000000000000     0.00000000000000     0.00000000000000    -0.00000000000000    -1.29565717559323
   10     0.65803828426316    -0.44854019758179     0.00000000000000     0.12869856108427     0.00000000000000
   11    -0.16582299895329    -0.11480972252078     0.00000000000000     0.92839750750318    -0.00000000000000
   12    -0.35800972868988    -0.83720297955326     0.00000000000000    -0.19618355503144    -0.00000000000000
   13     0.57296903528358    -0.04120341688996     0.00000000000000    -0.00170086454642    -0.00000000000000
   14     0.00000000000000     0.00000000000000     0.95758870699704     0.00000000000000     0.00000000000000
   15    -0.00000000000000     0.00000000000001     0.00000000000000    -0.00000000000000     0.00000000000000
   16     0.00000000000000    -0.00000000000000     0.00000000000000    -0.00000000000000    -0.17812585555151
   17     0.00000000000000     0.00000000000000     0.00000000000000    -0.00000000000000    -0.16430252183107
   18    -0.00000000000000    -0.00000000000000     0.00000000000000     0.00000000000000     0.99111491263692
   19    -0.73043526343658     0.49788832233281     0.00000000000000    -0.14285789993930    -0.00000000000000
   20     0.18406674629869     0.12744101964895     0.00000000000000    -1.03053924700793     0.00000000000000
   21     0.39739774530180     0.92931155153780     0.00000000000000     0.21776755263073     0.00000000000000
   22    -0.63600674647220     0.04573659221698     0.00000000000000     0.00188799264837     0.00000000000000
   23     0.00000000000000     0.00000000000000    -1.06294204484241     0.00000000000000     0.00000000000000

                21                  22                  23

    1     0.00000000000000     0.00000000000000    -0.76444966581185
    2     0.00000000000000     0.00000000000000    -1.65092656472687
    3     0.00000000000000    -0.00000000000000     2.43158130282280
    4     0.32510354091028     0.58121383018861     0.00000000000000
    5     0.57290437563516    -0.34258191661969     0.00000000000000
    6     0.15340196995712     0.04766565140332     0.00000000000000
    7    -0.64113738630356    -1.14621303393753    -0.00000000000000
    8    -1.12982594089299     0.67560652831225    -0.00000000000000
    9    -0.30252435207793    -0.09400153277817    -0.00000000000000
   10     0.00000000000000    -0.00000000000000     0.00000000000000
   11    -0.00000000000000    -0.00000000000000     0.00000000000000
   12     0.00000000000000     0.00000000000000     0.00000000000000
   13    -0.00000000000000     0.00000000000000     0.00000000000000
   14     0.00000000000000     0.00000000000000     0.00000000000000
   15    -0.00000000000000    -0.00000000000000    -1.18954390195869
   16     0.49043901163405     0.87679739084851    -0.00000000000000
   17     0.86426205928306    -0.51680623385468     0.00000000000000
   18     0.23141645986947     0.07190661442099     0.00000000000000
   19    -0.00000000000000     0.00000000000000     0.00000000000000
   20     0.00000000000000     0.00000000000000    -0.00000000000000
   21     0.00000000000000    -0.00000000000000    -0.00000000000000
   22     0.00000000000000    -0.00000000000000    -0.00000000000000
   23     0.00000000000000     0.00000000000000     0.00000000000000



  ## C beta (Symmetry 0) ##
  Irrep: 1 Size: 23 x 23

                 1                   2                   3                   4                   5

    1    -0.97634434871768    -0.06308230896429    -0.00000000000000     0.00000000000000    -0.00000000000000
    2     0.06232497949098    -0.63038809571991    -0.00000000000000     0.00000000000000    -0.00000000000000
    3    -0.05806935196495    -0.47838169854251     0.00000000000000    -0.00000000000000    -0.00000000000000
    4     0.00000000000000    -0.00000000000000     0.56752636075139    -0.08406929782838     0.64556249569387
    5     0.00000000000000     0.00000000000000     0.46281052065435    -0.55021094010764    -0.47851760279961
    6    -0.00000000000000    -0.00000000000000    -0.45784823321217    -0.66038248567030     0.31650390328713
    7    -0.00000000000000    -0.00000000000000     0.16421771147977    -0.02432603778406     0.18679801149616
    8     0.00000000000000    -0.00000000000000     0.13391745266245    -0.15920737372618    -0.13846240645192
    9    -0.00000000000000    -0.00000000000000    -0.13248158017473    -0.19108627897833     0.09158261230969
   10     0.00000000000000    -0.00000000000000    -0.00000000000000    -0.00000000000000     0.00000000000000
   11    -0.00000000000000    -0.00000000000000    -0.00000000000000    -0.00000000000000     0.00000000000000
   12     0.00000000000000     0.00000000000000    -0.00000000000000    -0.00000000000000    -0.00000000000000
   13    -0.00000000000000    -0.00000000000000     0.00000000000000    -0.00000000000000    -0.00000000000000
   14     0.00000000000000     0.00000000000000     0.00000000000000     0.00000000000000     0.00000000000000
   15     0.02084611547918     0.04715158626808    -0.00000000000000    -0.00000000000000     0.00000000000000
   16     0.00000000000000    -0.00000000000000    -0.03557714888532     0.00527014449437    -0.04046908586532
   17     0.00000000000000     0.00000000000000    -0.02901271189802     0.03449167807576     0.02999735902401
   18    -0.00000000000000     0.00000000000000     0.02870163552986     0.04139812286930    -0.01984102813326
   19    -0.00000000000000     0.00000000000000     0.00000000000000    -0.00000000000000    -0.00000000000000
   20     0.00000000000000     0.00000000000000     0.00000000000000     0.00000000000000     0.00000000000000
   21    -0.00000000000000    -0.00000000000000    -0.00000000000000     0.00000000000000    -0.00000000000000
   22     0.00000000000000     0.00000000000000     0.00000000000000    -0.00000000000000     0.00000000000000
   23     0.00000000000000     0.00000000000000     0.00000000000000     0.00000000000000     0.00000000000000

                 6                   7                   8                   9                  10

    1     0.00000000000000     0.00000000000000     0.00000000000000    -0.00000000000000     0.00000000000000
    2     0.00000000000000     0.00000000000000     0.00000000000000    -0.00000000000000     0.00000000000000
    3     0.00000000000000    -0.00000000000000     0.00000000000000     0.00000000000000     0.00000000000000
    4     0.00000000000000    -0.00000000000000     0.00000000000000     0.00000000000000    -0.00000000000000
    5     0.00000000000000    -0.00000000000000     0.00000000000000     0.00000000000000    -0.00000000000000
    6    -0.00000000000000    -0.00000000000000     0.00000000000000     0.00000000000000     0.00000000000000
    7    -0.00000000000000     0.00000000000000     0.00000000000000     0.00000000000000     0.00000000000000
    8    -0.00000000000000     0.00000000000000     0.00000000000000    -0.00000000000000    -0.00000000000000
    9     0.00000000000000    -0.00000000000000     0.00000000000000    -0.00000000000000    -0.00000000000000
   10     0.01442959261795    -0.02120422250297     0.00000000000000    -0.66472032283264    -0.00050763883760
   11    -0.13547191333996    -0.65103034742979     0.00000000000000     0.01782710078826    -0.00048926265188
   12     0.65111415598458    -0.13498367773768     0.00000000000000     0.01844086256980    -0.00094587926453
   13     0.00083720271219    -0.00068694752467     0.00000000000000    -0.00046792887502     0.66521410516937
   14     0.00000000000000     0.00000000000000    -0.66521515126987     0.00000000000000     0.00000000000000
   15    -0.00000000000000    -0.00000000000000     0.00000000000000     0.00000000000000    -0.00000000000000
   16     0.00000000000000     0.00000000000000     0.00000000000000    -0.00000000000000    -0.00000000000000
   17    -0.00000000000000     0.00000000000000     0.00000000000000    -0.00000000000000    -0.00000000000000
   18     0.00000000000000     0.00000000000000     0.00000000000000    -0.00000000000000    -0.00000000000000
   19     0.01039482450741    -0.01527514861788     0.00000000000000    -0.47885281901593    -0.00036569408228
   20    -0.09759158156001    -0.46899080173025     0.00000000000000     0.01284232958451    -0.00035245620157
   21     0.46905117593778    -0.09723986522689     0.00000000000000     0.01328447276744    -0.00068139477117
   22     0.00060310609598    -0.00049486490394     0.00000000000000    -0.00033708772428     0.47920853111889
   23     0.00000000000000     0.00000000000000    -0.47920928471128     0.00000000000000     0.00000000000000

                11                  12                  13                  14                  15

    1     0.00000000000000     0.00000000000000     0.00000000000000     0.17938971242355     0.00000000000000
    2    -0.00000000000000     0.00000000000000    -0.00000000000000     0.51148142824251     0.00000000000000
    3     0.00000000000000     0.00000000000000     0.00000000000000     0.13117000622678     0.00000000000000
    4    -0.05782655437740     0.31312793871564     0.31298008925630     0.00000000000000    -0.00000000000000
    5     0.03311405597675     0.31781350892609    -0.31184545131716    -0.00000000000000     0.00000000000000
    6     0.44148510911689     0.01717615225040     0.06438502068233    -0.00000000000000     0.00000000000000
    7     0.05841235772386    -0.31630003493242    -0.31615068770602    -0.00000000000000     0.00000000000000
    8    -0.03344951301746    -0.32103307161807     0.31500455548525     0.00000000000000    -0.00000000000000
    9    -0.44595750864195    -0.01735015271742    -0.06503726360055     0.00000000000000    -0.00000000000000
   10     0.00000000000000     0.00000000000000     0.00000000000000    -0.00000000000000     0.51595554046874
   11     0.00000000000000    -0.00000000000000    -0.00000000000000    -0.00000000000000    -0.11989854237221
   12    -0.00000000000000    -0.00000000000000     0.00000000000000    -0.00000000000000    -0.22227989044006
   13    -0.00000000000000     0.00000000000000    -0.00000000000000     0.00000000000000    -0.76614750660096
   14     0.00000000000000     0.00000000000000     0.00000000000000     0.00000000000000     0.00000000000000
   15    -0.00000000000000    -0.00000000000000    -0.00000000000000    -1.13331469657942    -0.00000000000000
   16     0.09283252861996    -0.50268356199845    -0.50244621015702     0.00000000000000     0.00000000000000
   17    -0.05316003317648    -0.51020559638812     0.50062470600390     0.00000000000000    -0.00000000000000
   18    -0.70874323169768    -0.02757393489088    -0.10336123844040    -0.00000000000000     0.00000000000000
   19    -0.00000000000000     0.00000000000000    -0.00000000000000     0.00000000000000    -0.57272066099596
   20    -0.00000000000000     0.00000000000000     0.00000000000000     0.00000000000000     0.13308970842231
   21     0.00000000000000     0.00000000000000    -0.00000000000000     0.00000000000000     0.24673499128100
   22     0.00000000000000    -0.00000000000000     0.00000000000000    -0.00000000000000     0.85043859787274
   23     0.00000000000000     0.00000000000000     0.00000000000000     0.00000000000000     0.00000000000000

                16                  17                  18                  19                  20

    1    -0.00000000000000    -0.00000000000000     0.00000000000000     0.00000000000000    -0.00000000000000
    2    -0.00000000000000    -0.00000000000000     0.00000000000000     0.00000000000000     0.00000000000000
    3     0.00000000000000    -0.00000000000000     0.00000000000000     0.00000000000000    -0.00000000000000
    4     0.00000000000000    -0.00000000000000     0.00000000000000     0.00000000000000    -0.11807654977227
    5    -0.00000000000000    -0.00000000000000     0.00000000000000    -0.00000000000000    -0.10891330086039
    6     0.00000000000000    -0.00000000000000     0.00000000000000     0.00000000000000     0.65699293878292
    7    -0.00000000000000     0.00000000000000     0.00000000000000     0.00000000000000     0.23285901560089
    8     0.00000000000000     0.00000000000000     0.00000000000000     0.00000000000000     0.21478815288140
    9    -0.00000000000000     0.00000000000000     0.00000000000000    -0.00000000000000    -1.29565717559323
   10     0.65803828426316    -0.44854019758179     0.00000000000000     0.12869856108427     0.00000000000000
   11    -0.16582299895329    -0.11480972252078     0.00000000000000     0.92839750750318    -0.00000000000000
   12    -0.35800972868988    -0.83720297955326     0.00000000000000    -0.19618355503144    -0.00000000000000
   13     0.57296903528358    -0.04120341688996     0.00000000000000    -0.00170086454642    -0.00000000000000
   14     0.00000000000000     0.00000000000000     0.95758870699704     0.00000000000000     0.00000000000000
   15    -0.00000000000000     0.00000000000001     0.00000000000000    -0.00000000000000     0.00000000000000
   16     0.00000000000000    -0.00000000000000     0.00000000000000    -0.00000000000000    -0.17812585555151
   17     0.00000000000000     0.00000000000000     0.00000000000000    -0.00000000000000    -0.16430252183107
   18    -0.00000000000000    -0.00000000000000     0.00000000000000     0.00000000000000     0.99111491263692
   19    -0.73043526343658     0.49788832233281     0.00000000000000    -0.14285789993930    -0.00000000000000
   20     0.18406674629869     0.12744101964895     0.00000000000000    -1.03053924700793     0.00000000000000
   21     0.39739774530180     0.92931155153780     0.00000000000000     0.21776755263073     0.00000000000000
   22    -0.63600674647220     0.04573659221698     0.00000000000000     0.00188799264837     0.00000000000000
   23     0.00000000000000     0.00000000000000    -1.06294204484241     0.00000000000000     0.00000000000000

                21                  22                  23

    1     0.00000000000000     0.00000000000000    -0.76444966581185
    2     0.00000000000000     0.00000000000000    -1.65092656472687
    3     0.00000000000000    -0.00000000000000     2.43158130282280
    4     0.32510354091028     0.58121383018861     0.00000000000000
    5     0.57290437563516    -0.34258191661969     0.00000000000000
    6     0.15340196995712     0.04766565140332     0.00000000000000
    7    -0.64113738630356    -1.14621303393753    -0.00000000000000
    8    -1.12982594089299     0.67560652831225    -0.00000000000000
    9    -0.30252435207793    -0.09400153277817    -0.00000000000000
   10     0.00000000000000    -0.00000000000000     0.00000000000000
   11    -0.00000000000000    -0.00000000000000     0.00000000000000
   12     0.00000000000000     0.00000000000000     0.00000000000000
   13    -0.00000000000000     0.00000000000000     0.00000000000000
   14     0.00000000000000     0.00000000000000     0.00000000000000
   15    -0.00000000000000    -0.00000000000000    -1.18954390195869
   16     0.49043901163405     0.87679739084851    -0.00000000000000
   17     0.86426205928306    -0.51680623385468     0.00000000000000
   18     0.23141645986947     0.07190661442099     0.00000000000000
   19    -0.00000000000000     0.00000000000000     0.00000000000000
   20     0.00000000000000     0.00000000000000    -0.00000000000000
   21     0.00000000000000    -0.00000000000000    -0.00000000000000
   22     0.00000000000000    -0.00000000000000    -0.00000000000000
   23     0.00000000000000     0.00000000000000     0.00000000000000



  ## SCF alpha density (Symmetry 0) ##
  Irrep: 1 Size: 23 x 23

                 1                   2                   3                   4                   5

    1     0.95722766497723    -0.02108430488835     0.08687310573499    -0.00000000000000    -0.00000000000000
    2    -0.02108430488835     0.40127355429392     0.29794695680120     0.00000000000000    -0.00000000000000
    3     0.08687310573499     0.29794695680120     0.23222109913804     0.00000000000000    -0.00000000000000
    4    -0.00000000000000     0.00000000000000     0.00000000000000     0.32915381698508     0.30891301789677
    5    -0.00000000000000    -0.00000000000000    -0.00000000000000     0.30891301789677     0.51692565664248
    6     0.00000000000000     0.00000000000000     0.00000000000000    -0.20432304970289     0.15145268907768
    7     0.00000000000000     0.00000000000000     0.00000000000000     0.09524295308249     0.08938613666888
    8    -0.00000000000000     0.00000000000000     0.00000000000000     0.08938613666888     0.14957604476136
    9     0.00000000000000     0.00000000000000     0.00000000000000    -0.05912229976481     0.04382389210056
   10    -0.00000000000000     0.00000000000000     0.00000000000000    -0.00000000000000     0.00000000000000
   11     0.00000000000000     0.00000000000000     0.00000000000000    -0.00000000000000     0.00000000000000
   12    -0.00000000000000    -0.00000000000000    -0.00000000000000    -0.00000000000000     0.00000000000000
   13     0.00000000000000     0.00000000000000     0.00000000000000     0.00000000000000     0.00000000000000
   14     0.00000000000000     0.00000000000000     0.00000000000000     0.00000000000000     0.00000000000000
   15    -0.02332741797394    -0.02842456495800    -0.02376697634476    -0.00000000000000     0.00000000000000
   16    -0.00000000000000     0.00000000000000     0.00000000000000    -0.02063402717989    -0.01936516995577
   17    -0.00000000000000    -0.00000000000000    -0.00000000000000    -0.01936516995577    -0.03240508691907
   18     0.00000000000000    -0.00000000000000    -0.00000000000000     0.01280862363884    -0.00949428121940
   19    -0.00000000000000    -0.00000000000000    -0.00000000000000     0.00000000000000     0.00000000000000
   20    -0.00000000000000    -0.00000000000000    -0.00000000000000     0.00000000000000    -0.00000000000000
   21     0.00000000000000     0.00000000000000     0.00000000000000    -0.00000000000000    -0.00000000000000
   22    -0.00000000000000     0.00000000000000    -0.00000000000000     0.00000000000000     0.00000000000000
   23     0.00000000000000     0.00000000000000     0.00000000000000     0.00000000000000     0.00000000000000

                 6                   7                   8                   9                  10

    1     0.00000000000000     0.00000000000000    -0.00000000000000     0.00000000000000    -0.00000000000000
    2     0.00000000000000     0.00000000000000     0.00000000000000     0.00000000000000     0.00000000000000
    3     0.00000000000000     0.00000000000000     0.00000000000000     0.00000000000000     0.00000000000000
    4    -0.20432304970289     0.09524295308249     0.08938613666888    -0.05912229976481    -0.00000000000000
    5     0.15145268907768     0.08938613666888     0.14957604476136     0.04382389210056     0.00000000000000
    6     0.64573003203558    -0.05912229976481     0.04382389210056     0.18684648930535     0.00000000000000
    7    -0.05912229976481     0.02755921287792     0.02586450219219    -0.01710744986707    -0.00000000000000
    8     0.04382389210056     0.02586450219219     0.04328087197639     0.01268074888955     0.00000000000000
    9     0.18684648930535    -0.01710744986707     0.01268074888955     0.05406533509938     0.00000000000000
   10     0.00000000000000    -0.00000000000000     0.00000000000000     0.00000000000000     0.00000000000000
   11     0.00000000000000    -0.00000000000000     0.00000000000000     0.00000000000000     0.00000000000000
   12     0.00000000000000    -0.00000000000000     0.00000000000000     0.00000000000000     0.00000000000000
   13     0.00000000000000     0.00000000000000     0.00000000000000     0.00000000000000     0.00000000000000
   14     0.00000000000000     0.00000000000000     0.00000000000000     0.00000000000000     0.00000000000000
   15     0.00000000000000    -0.00000000000000     0.00000000000000     0.00000000000000    -0.00000000000000
   16     0.01280862363884    -0.00597059970502    -0.00560344701582     0.00370626460133     0.00000000000000
   17    -0.00949428121941    -0.00560344701582    -0.00937663795406    -0.00274723650181    -0.00000000000000
   18    -0.04047958840016     0.00370626460133    -0.00274723650181    -0.01171305128438    -0.00000000000000
   19    -0.00000000000000     0.00000000000000     0.00000000000000    -0.00000000000000    -0.00000000000000
   20    -0.00000000000000     0.00000000000000    -0.00000000000000    -0.00000000000000    -0.00000000000000
   21    -0.00000000000000    -0.00000000000000    -0.00000000000000    -0.00000000000000    -0.00000000000000
   22    -0.00000000000000     0.00000000000000     0.00000000000000    -0.00000000000000    -0.00000000000000
   23     0.00000000000000     0.00000000000000     0.00000000000000     0.00000000000000     0.00000000000000

                11                  12                  13                  14                  15

    1     0.00000000000000    -0.00000000000000     0.00000000000000     0.00000000000000    -0.02332741797394
    2     0.00000000000000    -0.00000000000000     0.00000000000000     0.00000000000000    -0.02842456495800
    3     0.00000000000000    -0.00000000000000     0.00000000000000     0.00000000000000    -0.02376697634476
    4    -0.00000000000000    -0.00000000000000     0.00000000000000     0.00000000000000    -0.00000000000000
    5     0.00000000000000     0.00000000000000     0.00000000000000     0.00000000000000     0.00000000000000
    6     0.00000000000000     0.00000000000000     0.00000000000000     0.00000000000000     0.00000000000000
    7    -0.00000000000000    -0.00000000000000     0.00000000000000     0.00000000000000    -0.00000000000000
    8     0.00000000000000     0.00000000000000     0.00000000000000     0.00000000000000     0.00000000000000
    9     0.00000000000000     0.00000000000000     0.00000000000000     0.00000000000000     0.00000000000000
   10     0.00000000000000     0.00000000000000     0.00000000000000     0.00000000000000    -0.00000000000000
   11     0.00000000000000     0.00000000000000     0.00000000000000     0.00000000000000    -0.00000000000000
   12     0.00000000000000     0.00000000000000    -0.00000000000000     0.00000000000000     0.00000000000000
   13     0.00000000000000    -0.00000000000000     0.00000000000000     0.00000000000000    -0.00000000000000
   14     0.00000000000000     0.00000000000000     0.00000000000000     0.00000000000000     0.00000000000000
   15    -0.00000000000000     0.00000000000000    -0.00000000000000     0.00000000000000     0.00265783261817
   16     0.00000000000000     0.00000000000000    -0.00000000000000     0.00000000000000    -0.00000000000000
   17    -0.00000000000000    -0.00000000000000    -0.00000000000000     0.00000000000000     0.00000000000000
   18    -0.00000000000000    -0.00000000000000    -0.00000000000000     0.00000000000000    -0.00000000000000
   19     0.00000000000000     0.00000000000000    -0.00000000000000     0.00000000000000     0.00000000000000
   20    -0.00000000000000    -0.00000000000000    -0.00000000000000     0.00000000000000     0.00000000000000
   21    -0.00000000000000    -0.00000000000000    -0.00000000000000     0.00000000000000    -0.00000000000000
   22    -0.00000000000000    -0.00000000000000    -0.00000000000000     0.00000000000000     0.00000000000000
   23     0.00000000000000     0.00000000000000     0.00000000000000     0.00000000000000     0.00000000000000

                16                  17                  18                  19                  20

    1    -0.00000000000000    -0.00000000000000     0.00000000000000    -0.00000000000000    -0.00000000000000
    2     0.00000000000000    -0.00000000000000    -0.00000000000000    -0.00000000000000    -0.00000000000000
    3     0.00000000000000    -0.00000000000000    -0.00000000000000    -0.00000000000000    -0.00000000000000
    4    -0.02063402717989    -0.01936516995577     0.01280862363884     0.00000000000000     0.00000000000000
    5    -0.01936516995577    -0.03240508691907    -0.00949428121940     0.00000000000000    -0.00000000000000
    6     0.01280862363884    -0.00949428121941    -0.04047958840016    -0.00000000000000    -0.00000000000000
    7    -0.00597059970502    -0.00560344701582     0.00370626460133     0.00000000000000     0.00000000000000
    8    -0.00560344701582    -0.00937663795406    -0.00274723650181     0.00000000000000    -0.00000000000000
[...]
   22     0.21961850793707     0.00000000000000     0.00000000000000     0.93845384051877     0.00000000000000
   23     0.00000000000000     0.00000000000000    -0.93845384051877     0.00000000000000     0.00000000000000

                11                  12                  13                  14                  15

    1     0.00000000000000     0.00000000000000     0.00000000000000     0.00000000000000     0.00000000000000
    2     0.00000000000000    -0.00000000000000     0.00000000000000     0.00000000000000     0.00000000000000
    3     0.00000000000000     0.00000000000000     0.00000000000000     0.00000000000000     0.00000000000000
    4     0.00000000000000    -0.40825566525710     0.00000000000000     0.00000000000000     0.00000000000000
    5     0.00000000000000     0.00000000000000     0.00000000000000    -0.40825566525710     0.00000000000000
    6     0.00000000000000     0.00000000000000     0.40825566525710     0.00000000000000    -0.27156653984167
    7     0.00000000000000    -0.40345264617587     0.00000000000000     0.00000000000000     0.00000000000000
    8     0.00000000000000     0.00000000000000     0.00000000000000    -0.40345264617587     0.00000000000000
    9     0.00000000000000     0.00000000000000     0.40345264617587     0.00000000000000    -1.12474175118161
   10     0.00000000000000     0.00000000000000     0.00000000000000     0.00000000000000     0.00000000000000
   11     0.00000000000000     0.00000000000000     0.00000000000000     0.00000000000000     0.00000000000000
   12     0.00000000000000     0.00000000000000    -0.00000000000000     0.00000000000000     0.00000000000000
   13     0.00000000000000    -0.00000000000000     0.00000000000000     0.00000000000000     0.00000000000000
   14     0.00000000000000     0.00000000000000     0.00000000000000     0.00000000000000     0.00000000000000
   15     0.00000000000000     0.00000000000000     0.00000000000000     0.00000000000000     0.00000000000000
   16     0.00000000000000    -0.12110516713526     0.00000000000000     0.00000000000000     0.00000000000000
   17     0.00000000000000     0.00000000000000     0.00000000000000    -0.12110516713526     0.00000000000000
   18     0.00000000000000     0.00000000000000     0.12110516713526     0.00000000000000    -1.76832301800005
   19     0.00000000000000     0.00000000000000     0.00000000000000     0.00000000000000     0.00000000000000
   20     0.00000000000000     0.00000000000000     0.00000000000000     0.00000000000000     0.00000000000000
   21     0.00000000000000     0.00000000000000     0.00000000000000     0.00000000000000     0.00000000000000
   22     0.00000000000000     0.00000000000000     0.00000000000000     0.00000000000000     0.00000000000000
   23     0.00000000000000     0.00000000000000     0.00000000000000     0.00000000000000     0.00000000000000

                16                  17                  18                  19                  20

    1     0.00000000000000     0.00000000000000    -0.00334193984721     0.00000000000000     0.00000000000000
    2     0.00000000000000     0.00000000000000    -0.08853646179675     0.00000000000000     0.00000000000000
    3     0.00000000000000     0.00000000000000    -0.48298887790034     0.00000000000000     0.00000000000000
    4     0.00000000000000     0.00000000000000     0.00000000000000     0.00000000000000     0.00000000000000
    5     0.00000000000000     0.00000000000000     0.00000000000000     0.00000000000000     0.00000000000000
    6     0.00000000000000     0.00000000000000     0.00000000000000     0.12679680467649     0.00000000000000
    7     0.00000000000000     0.00000000000000     0.00000000000000     0.00000000000000     0.00000000000000
    8     0.00000000000000     0.00000000000000     0.00000000000000     0.00000000000000     0.00000000000000
    9     0.00000000000000     0.00000000000000     0.00000000000000     0.54181657744555     0.00000000000000
   10     0.00000000000000     0.00000000000000     0.06992010084580     0.00000000000000     0.00000000000000
   11     0.00000000000000     0.00000000000000     0.00000000000000     0.00000000000000     0.00000000000000
   12    -0.12110516713526     0.00000000000000     0.00000000000000     0.00000000000000     0.00000000000000
   13     0.00000000000000     0.00000000000000     0.12110516713526     0.00000000000000     0.00000000000000
   14     0.00000000000000    -0.12110516713526     0.00000000000000     0.00000000000000     0.00000000000000
   15     0.00000000000000     0.00000000000000    -1.76832301800005     0.00000000000000     0.00000000000000
   16     0.00000000000000     0.00000000000000     0.00000000000000     0.00000000000000     0.00000000000000
   17     0.00000000000000     0.00000000000000     0.00000000000000     0.00000000000000     0.00000000000000
   18     0.00000000000000     0.00000000000000     0.00000000000000     0.40903266808798     0.00000000000000
   19     0.00000000000000     0.00000000000000     0.40903266808798     0.00000000000000     0.00000000000000
   20     0.00000000000000     0.00000000000000     0.00000000000000     0.00000000000000     0.00000000000000
   21    -0.70846536308384     0.00000000000000     0.00000000000000     0.00000000000000     0.00000000000000
   22     0.00000000000000     0.00000000000000     0.70846536308384     0.00000000000000     0.00000000000000
   23     0.00000000000000    -0.70846536308384     0.00000000000000     0.00000000000000     0.00000000000000

                21                  22                  23

    1     0.00000000000000     0.00000000000000     0.00000000000000
    2    -0.00000000000000     0.00000000000000     0.00000000000000
    3     0.00000000000000     0.00000000000000     0.00000000000000
    4    -0.21961850793707     0.00000000000000     0.00000000000000
    5     0.00000000000000     0.00000000000000    -0.21961850793707
    6     0.00000000000000     0.21961850793707     0.00000000000000
    7    -0.93845384051877     0.00000000000000     0.00000000000000
    8     0.00000000000000     0.00000000000000    -0.93845384051877
    9     0.00000000000000     0.93845384051877     0.00000000000000
   10     0.00000000000000     0.00000000000000     0.00000000000000
   11     0.00000000000000     0.00000000000000     0.00000000000000
   12     0.00000000000000     0.00000000000000     0.00000000000000
   13     0.00000000000000     0.00000000000000     0.00000000000000
   14     0.00000000000000     0.00000000000000     0.00000000000000
   15     0.00000000000000     0.00000000000000     0.00000000000000
   16    -0.70846536308384     0.00000000000000     0.00000000000000
   17     0.00000000000000     0.00000000000000    -0.70846536308384
   18     0.00000000000000     0.70846536308384     0.00000000000000
   19     0.00000000000000     0.00000000000000     0.00000000000000
   20     0.00000000000000     0.00000000000000     0.00000000000000
   21     0.00000000000000     0.00000000000000     0.00000000000000
   22     0.00000000000000     0.00000000000000     0.00000000000000
   23     0.00000000000000     0.00000000000000     0.00000000000000



  ## SO Dipole z (Symmetry 0) ##
  Irrep: 1 Size: 23 x 23

                 1                   2                   3                   4                   5

    1    -0.00000000000000     0.00000000000000    -0.00000000000000    -0.08194850170804     0.00000000000000
    2     0.00000000000000    -0.00000000000000    -0.00000000000000    -0.45720951124634     0.00000000000000
    3    -0.00000000000000    -0.00000000000000    -0.00000000000000    -0.48921140916848     0.00000000000000
    4    -0.08194850170804    -0.45720951124634    -0.48921140916848    -0.00000000000000     0.00000000000000
    5     0.00000000000000     0.00000000000000     0.00000000000000     0.00000000000000    -0.00000000000000
    6     0.00000000000000     0.00000000000000     0.00000000000000     0.00000000000000     0.00000000000000
    7    -0.01549909307702    -0.32239400196438    -0.90690836296052    -0.00000000000000     0.00000000000000
    8     0.00000000000000     0.00000000000000     0.00000000000000     0.00000000000000    -0.00000000000000
    9     0.00000000000000     0.00000000000000     0.00000000000000     0.00000000000000     0.00000000000000
   10     0.00000000000000     0.00000000000000     0.00000000000000    -0.47141303646875     0.00000000000000
   11     0.00000000000000     0.00000000000000     0.00000000000000     0.00000000000000    -0.40825566525710
   12     0.00000000000000     0.00000000000000     0.00000000000000     0.00000000000000     0.00000000000000
   13     0.00000000000000     0.00000000000000     0.00000000000000     0.00000000000000     0.00000000000000
   14     0.00000000000000     0.00000000000000     0.00000000000000     0.00000000000000     0.00000000000000
   15    -0.00000000000000    -0.00000000000000    -0.00000000000000    -0.27156653984167     0.00000000000000
   16    -0.00334193984721    -0.08853646179675    -0.48298887790034    -0.00000000000000     0.00000000000000
   17     0.00000000000000     0.00000000000000     0.00000000000000     0.00000000000000    -0.00000000000000
   18     0.00000000000000     0.00000000000000     0.00000000000000     0.00000000000000     0.00000000000000
   19     0.00000000000000     0.00000000000000     0.00000000000000    -0.25359360935298     0.00000000000000
   20     0.00000000000000     0.00000000000000     0.00000000000000     0.00000000000000    -0.21961850793707
   21     0.00000000000000     0.00000000000000     0.00000000000000     0.00000000000000     0.00000000000000
   22     0.00000000000000     0.00000000000000     0.00000000000000     0.00000000000000     0.00000000000000
   23     0.00000000000000     0.00000000000000     0.00000000000000     0.00000000000000     0.00000000000000

                 6                   7                   8                   9                  10

    1     0.00000000000000    -0.01549909307702     0.00000000000000     0.00000000000000     0.00000000000000
    2     0.00000000000000    -0.32239400196438     0.00000000000000     0.00000000000000     0.00000000000000
    3     0.00000000000000    -0.90690836296052     0.00000000000000     0.00000000000000     0.00000000000000
    4     0.00000000000000    -0.00000000000000     0.00000000000000     0.00000000000000    -0.47141303646875
    5     0.00000000000000     0.00000000000000    -0.00000000000000     0.00000000000000     0.00000000000000
    6    -0.00000000000000     0.00000000000000     0.00000000000000    -0.00000000000000     0.00000000000000
    7     0.00000000000000    -0.00000000000000     0.00000000000000     0.00000000000000    -0.46586698774981
    8     0.00000000000000     0.00000000000000    -0.00000000000000     0.00000000000000     0.00000000000000
    9    -0.00000000000000     0.00000000000000     0.00000000000000    -0.00000000000000     0.00000000000000
   10     0.00000000000000    -0.46586698774981     0.00000000000000     0.00000000000000    -0.00000000000000
   11     0.00000000000000     0.00000000000000    -0.40345264617587     0.00000000000000     0.00000000000000
   12    -0.40825566525710     0.00000000000000     0.00000000000000    -0.40345264617587     0.00000000000000
   13     0.00000000000000     0.00000000000000     0.00000000000000     0.00000000000000    -0.00000000000000
   14     0.00000000000000     0.00000000000000     0.00000000000000     0.00000000000000     0.00000000000000
   15     0.00000000000000    -1.12474175118161     0.00000000000000     0.00000000000000     0.00000000000000
   16     0.00000000000000    -0.00000000000000     0.00000000000000     0.00000000000000    -0.13984020169159
   17     0.00000000000000     0.00000000000000    -0.00000000000000     0.00000000000000     0.00000000000000
   18    -0.00000000000000     0.00000000000000     0.00000000000000    -0.00000000000000     0.00000000000000
   19     0.00000000000000    -1.08363315489110     0.00000000000000     0.00000000000000    -0.00000000000000
   20     0.00000000000000     0.00000000000000    -0.93845384051877     0.00000000000000     0.00000000000000
   21    -0.21961850793707     0.00000000000000     0.00000000000000    -0.93845384051877     0.00000000000000
   22     0.00000000000000     0.00000000000000     0.00000000000000     0.00000000000000     0.00000000000000
   23     0.00000000000000     0.00000000000000     0.00000000000000     0.00000000000000     0.00000000000000

                11                  12                  13                  14                  15

    1     0.00000000000000     0.00000000000000     0.00000000000000     0.00000000000000    -0.00000000000000
    2     0.00000000000000     0.00000000000000     0.00000000000000     0.00000000000000    -0.00000000000000
    3     0.00000000000000     0.00000000000000     0.00000000000000     0.00000000000000    -0.00000000000000
    4     0.00000000000000     0.00000000000000     0.00000000000000     0.00000000000000    -0.27156653984167
    5    -0.40825566525710     0.00000000000000     0.00000000000000     0.00000000000000     0.00000000000000
    6     0.00000000000000    -0.40825566525710     0.00000000000000     0.00000000000000     0.00000000000000
    7     0.00000000000000     0.00000000000000     0.00000000000000     0.00000000000000    -1.12474175118161
    8    -0.40345264617587     0.00000000000000     0.00000000000000     0.00000000000000     0.00000000000000
    9     0.00000000000000    -0.40345264617587     0.00000000000000     0.00000000000000     0.00000000000000
   10     0.00000000000000     0.00000000000000     0.00000000000000     0.00000000000000     0.00000000000000
   11    -0.00000000000000     0.00000000000000     0.00000000000000     0.00000000000000     0.00000000000000
   12     0.00000000000000    -0.00000000000000     0.00000000000000     0.00000000000000     0.00000000000000
   13     0.00000000000000     0.00000000000000    -0.00000000000000     0.00000000000000     0.00000000000000
   14     0.00000000000000     0.00000000000000     0.00000000000000    -0.00000000000000     0.00000000000000
   15     0.00000000000000     0.00000000000000     0.00000000000000     0.00000000000000    -0.00000000000000
   16     0.00000000000000     0.00000000000000     0.00000000000000     0.00000000000000    -1.76832301800005
   17    -0.12110516713526     0.00000000000000     0.00000000000000     0.00000000000000     0.00000000000000
   18     0.00000000000000    -0.12110516713526     0.00000000000000     0.00000000000000     0.00000000000000
   19     0.00000000000000     0.00000000000000     0.00000000000000     0.00000000000000     0.00000000000000
   20    -0.00000000000000     0.00000000000000     0.00000000000000     0.00000000000000     0.00000000000000
   21     0.00000000000000    -0.00000000000000     0.00000000000000     0.00000000000000     0.00000000000000
   22     0.00000000000000     0.00000000000000    -0.00000000000000     0.00000000000000     0.00000000000000
   23     0.00000000000000     0.00000000000000     0.00000000000000    -0.00000000000000     0.00000000000000

                16                  17                  18                  19                  20

    1    -0.00334193984721     0.00000000000000     0.00000000000000     0.00000000000000     0.00000000000000
    2    -0.08853646179675     0.00000000000000     0.00000000000000     0.00000000000000     0.00000000000000
    3    -0.48298887790034     0.00000000000000     0.00000000000000     0.00000000000000     0.00000000000000
    4    -0.00000000000000     0.00000000000000     0.00000000000000    -0.25359360935298     0.00000000000000
    5     0.00000000000000    -0.00000000000000     0.00000000000000     0.00000000000000    -0.21961850793707
    6     0.00000000000000     0.00000000000000    -0.00000000000000     0.00000000000000     0.00000000000000
    7    -0.00000000000000     0.00000000000000     0.00000000000000    -1.08363315489110     0.00000000000000
    8     0.00000000000000    -0.00000000000000     0.00000000000000     0.00000000000000    -0.93845384051877
    9     0.00000000000000     0.00000000000000    -0.00000000000000     0.00000000000000     0.00000000000000
   10    -0.13984020169159     0.00000000000000     0.00000000000000    -0.00000000000000     0.00000000000000
   11     0.00000000000000    -0.12110516713526     0.00000000000000     0.00000000000000    -0.00000000000000
   12     0.00000000000000     0.00000000000000    -0.12110516713526     0.00000000000000     0.00000000000000
   13     0.00000000000000     0.00000000000000     0.00000000000000     0.00000000000000     0.00000000000000
   14     0.00000000000000     0.00000000000000     0.00000000000000     0.00000000000000     0.00000000000000
   15    -1.76832301800005     0.00000000000000     0.00000000000000     0.00000000000000     0.00000000000000
   16    -0.00000000000000     0.00000000000000     0.00000000000000    -0.81806533617596     0.00000000000000
   17     0.00000000000000    -0.00000000000000     0.00000000000000     0.00000000000000    -0.70846536308384
   18     0.00000000000000     0.00000000000000    -0.00000000000000     0.00000000000000     0.00000000000000
   19    -0.81806533617596     0.00000000000000     0.00000000000000    -0.00000000000000     0.00000000000000
   20     0.00000000000000    -0.70846536308384     0.00000000000000     0.00000000000000    -0.00000000000000
   21     0.00000000000000     0.00000000000000    -0.70846536308384     0.00000000000000     0.00000000000000
   22     0.00000000000000     0.00000000000000     0.00000000000000     0.00000000000000     0.00000000000000
   23     0.00000000000000     0.00000000000000     0.00000000000000     0.00000000000000     0.00000000000000

                21                  22                  23

    1     0.00000000000000     0.00000000000000     0.00000000000000
    2     0.00000000000000     0.00000000000000     0.00000000000000
    3     0.00000000000000     0.00000000000000     0.00000000000000
    4     0.00000000000000     0.00000000000000     0.00000000000000
    5     0.00000000000000     0.00000000000000     0.00000000000000
    6    -0.21961850793707     0.00000000000000     0.00000000000000
    7     0.00000000000000     0.00000000000000     0.00000000000000
    8     0.00000000000000     0.00000000000000     0.00000000000000
    9    -0.93845384051877     0.00000000000000     0.00000000000000
   10     0.00000000000000     0.00000000000000     0.00000000000000
   11     0.00000000000000     0.00000000000000     0.00000000000000
   12    -0.00000000000000     0.00000000000000     0.00000000000000
   13     0.00000000000000    -0.00000000000000     0.00000000000000
   14     0.00000000000000     0.00000000000000    -0.00000000000000
   15     0.00000000000000     0.00000000000000     0.00000000000000
   16     0.00000000000000     0.00000000000000     0.00000000000000
   17     0.00000000000000     0.00000000000000     0.00000000000000
   18    -0.70846536308384     0.00000000000000     0.00000000000000
   19     0.00000000000000     0.00000000000000     0.00000000000000
   20     0.00000000000000     0.00000000000000     0.00000000000000
   21    -0.00000000000000     0.00000000000000     0.00000000000000
   22     0.00000000000000    -0.00000000000000     0.00000000000000
   23     0.00000000000000     0.00000000000000    -0.00000000000000



  Nuclear Dipole Moment: (a.u.)
     X:     0.0000      Y:     0.0000      Z:     0.0000

  Electronic Dipole Moment: (a.u.)
     X:     0.0000      Y:    -0.0000      Z:     0.0000

  Dipole Moment: (a.u.)
     X:     0.0000      Y:    -0.0000      Z:     0.0000     Total:     0.0000

  Dipole Moment: (Debye)
     X:     0.0000      Y:    -0.0000      Z:     0.0000     Total:     0.0000


*** Psi4 exiting successfully. Buy a developer a beer!
